----- GAMESS execution script 'rungms' -----
This job is running on host PC102994
under operating system Darwin at Thu Mar 28 09:44:41 PDT 2024
Available scratch disk space (Kbyte units) at beginning of the job is
Filesystem   1024-blocks      Used Available Capacity iused      ifree %iused  Mounted on
/dev/disk1s2   976797816 469208956 484240168    50% 1675850 4842401680    0%   /System/Volumes/Data
GAMESS temporary binary files will be written to ./
GAMESS supplementary output files will be written to ./
Copying input file ./CH2O2_t_avo_n_vibs.inp to your run's scratch directory...
cp ./CH2O2_t_avo_n_vibs.inp .//CH2O2_t_avo_n_vibs.F05
unset echo
.//ddikick.x .//gamess.30Jun2020R1.x CH2O2_t_avo_n_vibs -ddi 1 1 localhost -scr ./

 Distributed Data Interface kickoff program.
 Initiating 1 compute processes on 1 nodes to run the following command:
 .//gamess.30Jun2020R1.x CH2O2_t_avo_n_vibs 

          *******************************************************
          *                                                     *
          *          GAMESS VERSION = 30 JUN 2020 (R1)          *
          *                                                     *
          *              doi.org/10.1063/5.0005188              *
          *                                                     *
          **************** 64 BIT APPLE VERSION *****************

  GAMESS HAS BEEN MADE POSSIBLE WITH IMPORTANT CONTRIBUTIONS FROM
  THE FOLLOWING INDIVIDUALS (IN ALPHABETICAL ORDER):

     IVANA ADAMOVIC, CHRISTINE AIKENS, TOMOKO AKAMA,
     YURI ALEXEEV, YURIKO AOKI, POOJA ARORA, TOSHIO ASADA,
     ANDREY ASADCHEV, KIM K. BALDRIDGE, PRADIPTA BANDYOPADHYAY,
     MARIA BARYSZ, ROB BELL, JONATHAN BENTZ, COLLEEN BERTONI,
     JERRY A. BOATZ, BRETT BODE, KURT BRORSEN, KURT R. BRORSEN,
     LAIMUTIS BYTAUTAS, CALEB CARLIN, LAURA CARRINGTON,
     GALINA CHABAN, BENOIT CHAMPAGNE, WEI CHEN, MAHITO CHIBA,
     DAN CHIPMAN, CHEOL HO CHOI, TANNER CULPITT, PAUL DAY,
     ALBERT DEFUSCO, NUWAN DESILVA, J. EMILIANO DEUSTUA,
     TIM DUDLEY, MICHEL DUPUIS, STEVEN T. ELBERT,
     DMITRI FEDOROV, ALEX FINDLATER, GRAHAM FLETCHER,
     MARK FREITAG, CHRISTIAN FRIEDL, DAVID GARMER,
     IGOR S. GERASIMOV, KURT GLAESEMANN, MARK S. GORDON,
     JEFFREY GOUR, FENG LONG GU, EMILIE B. GUIDEZ,
     ANASTASIA GUNINA, SHARON HAMMES-SCHIFFER, MASATAKE HARUTA,
     KIMIHIKO HIRAO, YASUHIRO IKABATA, TZVETELIN IORDANOV,
     STEPHAN IRLE, KAZUYA ISHIMURA, JOE IVANIC, FRANK JENSEN,
     JAN H. JENSEN, VISVALDAS KAIRYS, MUNEAKI KAMIYA,
     MICHIO KATOUDA, NAOAKI KAWAKAMI, DAN KEMP, BERNARD KIRTMAN,
     KAZUO KITAURA, MARIUSZ KLOBUKOWSKI, MASATO KOBAYASHI,
     PRAKASHAN KORAMBATH, JACEK KORCHOWIEC, SHIRO KOSEKI,
     KAROL KOWALSKI, JIMMY KROMANN, STANISLAW KUCHARSKI,
     HENRY KURTZ, SAROM SOK LEANG, HUI LI, SHUHUA LI, WEI LI,
     JESSE LUTZ, ALEKSANDR O. LYKHIN, MARCIN MAKOWSKI,
     JOANI MATO, NIKITA MATSUNAGA, BENEDETTA MENNUCCI,
     GRANT MERRILL, NORIYUKI MINEZAWA, VLADIMIR MIRONOV,
     EISAKU MIYOSHI, JOHN A. MONTGOMERY JR., HIROTOSHI MORI,
     JONATHAN MULLIN, MONIKA MUSIAL, SHIGERU NAGASE,
     TAKESHI NAGATA, HIROMI NAKAI, TAKAHITO NAKAJIMA,
     YUYA NAKAJIMA, HARUYUKI NAKANO, HIROYA NAKATA, SEAN NEDD,
     HEATHER NETZLOFF, KIET A. NGUYEN, YOSHIO NISHIMOTO,
     BOSILJKA NJEGIC, RYAN OLSON, MIKE PAK, ROBERTO PEVERATI,
     BUU PHAM, PIOTR PIECUCH, ANNA POMOGAEVA, DAVID POOLE,
     SPENCER PRUITT, OLIVIER QUINET, LUKE ROSKOP,
     KLAUS RUEDENBERG, ANDREW SAND, TOSAPORN SATTASATHUCHANA,
     NOZOMI SAWADA, MICHAEL W. SCHMIDT, PATRICK E. SCHNEIDER,
     JUNJI SEINO, PRACHI SHARMA, JUN SHEN, JIM SHOEMAKER,
     YINAN SHU, DEJUN SI, JONATHAN SKONE, LYUDMILA SLIPCHENKO,
     TONY SMITH, JIE SONG, MARK SPACKMAN, CASPER STEINMANN,
     WALT STEVENS, PEIFENG SU, SHUJUN SU, CHET SWALINA,
     TETSUYA TAKETSUGU, ZHEN TAO, NANDUN THELLAMUREGE
     SEIKEN TOKURA, JACOPO TOMASI, TSUGUKI TOUMA, TAKAO TSUNEDA,
     HIROAKI UMEDA, JORGE LUIS GALVEZ VALLEJO, YALI WANG,
     SIMON WEBB, AARON WEST, THERESA L. WINDUS, MARTA WLOCH,
     PENG XU, KIYOSHI YAGI, SUSUMU YANAGISAWA, YANG YANG,
     SOOHAENG YOO, TAKESHI YOSHIKAWA, FEDERICO ZAHARIEV,
     TOBY ZENG

  WHO ARE SUPPORTED BY THEIR INSTITUTION/UNIVERSITY/COMPANY/GROUP
  (IN ALPHABETICAL ORDER):

     EP ANALYTICS, FACULTES UNIVERSITAIRES NOTRE-DAME DE LA PAIX,
     INSTITUTE FOR MOLECULAR SCIENCE, IOWA STATE UNIVERSITY,
     JACKSON STATE UNIVERSITY, JOHANNES KEPLER UNIVERSITY LINZ,
     KYUSHU UNIVERSITY, MICHIGAN STATE UNIVERSITY,
     MIE UNIVERSITY, MOSCOW STATE UNIVERSITY,
     N. COPERNICUS UNIVERSITY, NAGOYA UNIVERSITY,
     NANJING UNIVERSITY, NAT. INST. OF ADVANCED INDUSTRIAL
     SCIENCE AND TECHNOLOGY, NATIONAL INST. OF STANDARDS AND
     TECHNOLOGY, NESMEYANOV INSTITUTE OF ORGANOELEMENT COMPOUNDS
     OF RUSSIAN ACADEMY OF SCIENCES, OSAKA PREFECTURE UNIVERSITY,
     PENNSYLVANIA STATE UNIVERSITY, TOKYO INSTITUTE OF TECHNOLOGY,
     UNIVERSITY OF AARHUS, UNIVERSITY OF ALBERTA,
     UNIVERSITY OF CALIFORNIA AT SANTA BARBARA,
     UNIVERSITY OF COPENHAGEN, UNIVERSITY OF IOWA,
     UNIVERSITY OF MEMPHIS, UNIVERSITY OF MINNESOTA,
     UNIVERSITY OF NEBRASKA, UNIVERSITY OF NEW ENGLAND,
     UNIVERSITY OF NOTRE DAME, UNIVERSITY OF PISA,
     UNIVERSITY OF SILESIA, UNIVERSITY OF TOKYO,
     UNIVERSITY OF ZURICH, WASEDA UNIVERSITY, YALE UNIVERSITY

  GAMESS SOFTWARE MANAGEMENT TEAM FOR THIS RELEASE:

     MARK S. GORDON (TEAM LEAD),
     BRETT BODE (SENIOR ADVISOR),
     GIUSEPPE BARCA,
     COLLEEN BERTONI,
     KRISTOPHER KEIPERT (ADVISOR),
     SAROM S. LEANG (DEVELOPMENT LEAD),
     BUU PHAM,
     JORGE LUIS GALVEZ VALLEJO (WEBSITE ADMINISTRATOR),
     PENG XU

 EXECUTION OF GAMESS BEGUN Thu Mar 28 09:44:41 2024

            ECHO OF THE FIRST FEW INPUT CARDS -
 INPUT CARD>!   File created by the GAMESS Input Deck Generator Plugin for Avogadro         
 INPUT CARD> $BASIS GBASIS=STO NGAUSS=3 $END                                                
 INPUT CARD> $CONTRL SCFTYP=RHF RUNTYP=HESSIAN MPLEVL=2 $END                                
 INPUT CARD> $FORCE METHOD=SEMINUM VIBSIZ=0.010000 VIBANL=.TRUE. $END                       
 INPUT CARD>                                                                                
 INPUT CARD> $DATA                                                                          
 INPUT CARD>Title                                                                           
 INPUT CARD>C1                                                                              
 INPUT CARD> C           6.0   0.0384907738  -0.0000000000  -0.0154454929                   
 INPUT CARD> O           8.0  -0.0770623763  -0.0000000000   1.3902008033                   
 INPUT CARD> O           8.0   1.1347886655   0.0000000000  -0.6273676053                   
 INPUT CARD> H           1.0   0.8996500167   0.0000000000   1.6802516290                   
 INPUT CARD> H           1.0  -0.9868670797   0.0000000000  -0.4656393342                   
 INPUT CARD> $END                                                                           
    1000000 WORDS OF MEMORY AVAILABLE

     BASIS OPTIONS
     -------------
     GBASIS=STO          IGAUSS=       3      POLAR=NONE    
     NDFUNC=       0     NFFUNC=       0     DIFFSP=       F
     NPFUNC=       0      DIFFS=       F     BASNAM=        


     RUN TITLE
     ---------
 Title                                                                           

 THE POINT GROUP OF THE MOLECULE IS C1      
 THE ORDER OF THE PRINCIPAL AXIS IS     0

 ATOM      ATOMIC                      COORDINATES (BOHR)
           CHARGE         X                   Y                   Z
 C           6.0     0.0727370155       -0.0000000000       -0.0291877493
 O           8.0    -0.1456267752       -0.0000000000        2.6270985861
 O           8.0     2.1444396318        0.0000000000       -1.1855528676
 H           1.0     1.7000920164        0.0000000000        3.1752151692
 H           1.0    -1.8649083669        0.0000000000       -0.8799307507

          INTERNUCLEAR DISTANCES (ANGS.)
          ------------------------------

                1 C          2 O          3 O          4 H          5 H     

   1 C       0.0000000    1.4103879 *  1.2555149 *  1.9018370 *  1.1198362 *
   2 O       1.4103879 *  0.0000000    2.3535431 *  1.0188702 *  2.0668544 *
   3 O       1.2555149 *  2.3535431 *  0.0000000    2.3195682 *  2.1278109 *
   4 H       1.9018370 *  1.0188702 *  2.3195682 *  0.0000000    2.8572355 *
   5 H       1.1198362 *  2.0668544 *  2.1278109 *  2.8572355 *  0.0000000  

  * ... LESS THAN  3.000


     ATOMIC BASIS SET
     ----------------
 THE CONTRACTED PRIMITIVE FUNCTIONS HAVE BEEN UNNORMALIZED
 THE CONTRACTED BASIS FUNCTIONS ARE NOW NORMALIZED TO UNITY

  SHELL TYPE  PRIMITIVE        EXPONENT          CONTRACTION COEFFICIENT(S)

 C         

      1   S       1            71.6168373    0.154328967295
      1   S       2            13.0450963    0.535328142282
      1   S       3             3.5305122    0.444634542185

      2   L       4             2.9412494   -0.099967229187    0.155916274999
      2   L       5             0.6834831    0.399512826089    0.607683718598
      2   L       6             0.2222899    0.700115468880    0.391957393099

 O         

      3   S       7           130.7093214    0.154328967295
      3   S       8            23.8088661    0.535328142282
      3   S       9             6.4436083    0.444634542185

      4   L      10             5.0331513   -0.099967229187    0.155916274999
      4   L      11             1.1695961    0.399512826089    0.607683718598
      4   L      12             0.3803890    0.700115468880    0.391957393099

 O         

      5   S      13           130.7093214    0.154328967295
      5   S      14            23.8088661    0.535328142282
      5   S      15             6.4436083    0.444634542185

      6   L      16             5.0331513   -0.099967229187    0.155916274999
      6   L      17             1.1695961    0.399512826089    0.607683718598
      6   L      18             0.3803890    0.700115468880    0.391957393099

 H         

      7   S      19             3.4252509    0.154328967295
      7   S      20             0.6239137    0.535328142282
      7   S      21             0.1688554    0.444634542185

 H         

      8   S      22             3.4252509    0.154328967295
      8   S      23             0.6239137    0.535328142282
      8   S      24             0.1688554    0.444634542185

 TOTAL NUMBER OF BASIS SET SHELLS             =    8
 NUMBER OF CARTESIAN GAUSSIAN BASIS FUNCTIONS =   17
 NUMBER OF ELECTRONS                          =   24
 CHARGE OF MOLECULE                           =    0
 SPIN MULTIPLICITY                            =    1
 NUMBER OF OCCUPIED ORBITALS (ALPHA)          =   12
 NUMBER OF OCCUPIED ORBITALS (BETA )          =   12
 TOTAL NUMBER OF ATOMS                        =    5
 THE NUCLEAR REPULSION ENERGY IS       67.3385558514

     $CONTRL OPTIONS
     ---------------
 SCFTYP=RHF          RUNTYP=HESSIAN      EXETYP=RUN     
 MPLEVL=       2     CITYP =NONE         CCTYP =NONE         VBTYP =NONE    
 DFTTYP=NONE         TDDFT =NONE    
 MULT  =       1     ICHARG=       0     NZVAR =       0     COORD =UNIQUE  
 PP    =NONE         RELWFN=NONE         LOCAL =NONE         NUMGRD=       F
 ISPHER=      -1     NOSYM =       0     MAXIT =      30     UNITS =ANGS    
 PLTORB=       F     MOLPLT=       F     AIMPAC=       F     FRIEND=        
 NPRINT=       7     IREST =       0     GEOM  =INPUT   
 NORMF =       0     NORMP =       0     ITOL  =      20     ICUT  =       9
 INTTYP=BEST         GRDTYP=BEST         QMTTOL= 1.0E-06

     $SYSTEM OPTIONS
     ---------------
  REPLICATED MEMORY=     1000000 WORDS (ON EVERY NODE).
 DISTRIBUTED MEMDDI=           0 MILLION WORDS IN AGGREGATE,
 MEMDDI DISTRIBUTED OVER   1 PROCESSORS IS           0 WORDS/PROCESSOR.
 TOTAL MEMORY REQUESTED ON EACH PROCESSOR=     1000000 WORDS.
 TIMLIM=      525600.00 MINUTES, OR     365.0 DAYS.
 PARALL= F  BALTYP=  DLB     KDIAG=    0  COREFL= F
 MXSEQ2=     300 MXSEQ3=     150  mem10=         0  mem22=         0

 Using Gaussians for PCM contribution to MEP, params: 0.10000E+01 0.10000E-07

          ----------------
          PROPERTIES INPUT
          ----------------

     MOMENTS            FIELD           POTENTIAL          DENSITY
 IEMOM =       1   IEFLD =       0   IEPOT =       0   IEDEN =       0
 WHERE =COMASS     WHERE =NUCLEI     WHERE =NUCLEI     WHERE =NUCLEI  
 OUTPUT=BOTH       OUTPUT=BOTH       OUTPUT=BOTH       OUTPUT=BOTH    
 IEMINT=       0   IEFINT=       0                     IEDINT=       0
                                                       MORB  =       0
          EXTRAPOLATION IN EFFECT
          SOSCF IN EFFECT
 ORBITAL PRINTING OPTION: NPREO=     1    17     2     1

     -------------------------------
     INTEGRAL TRANSFORMATION OPTIONS
     -------------------------------
     NWORD  =            0
     CUTOFF = 1.0E-09     MPTRAN =       0
     DIRTRF =       F     AOINTS =DUP     

          ----------------------
          INTEGRAL INPUT OPTIONS
          ----------------------
 NOPK  =       1 NORDER=       0 SCHWRZ=       F

          -----------------------
          MP2 CONTROL INFORMATION
          -----------------------
          NACORE =        3  NBCORE =        3
          LMOMP2 =        F  AOINTS = DUP     
          METHOD =        2  NWORD  =               0
          MP2PRP =        F  OSPT   = NONE    
          CUTOFF = 1.00E-09  CPHFBS = BASISAO 
          CODE   = IMS     

          NUMBER OF CORE -A-  ORBITALS =     3
          NUMBER OF CORE -B-  ORBITALS =     3
          NUMBER OF OCC. -A-  ORBITALS =    12
          NUMBER OF OCC. -B-  ORBITALS =    12
          NUMBER OF MOLECULAR ORBITALS =    17
          NUMBER OF   BASIS  FUNCTIONS =    17


     ------------------------------------------
     THE POINT GROUP IS C1 , NAXIS= 0, ORDER= 1
     ------------------------------------------

     DIMENSIONS OF THE SYMMETRY SUBSPACES ARE
 A   =   17

 ..... DONE SETTING UP THE RUN .....
 STEP CPU TIME =     0.00 TOTAL CPU TIME =          0.0 (      0.0 MIN)
 TOTAL WALL CLOCK TIME=          0.0 SECONDS, CPU UTILIZATION IS   100.00%

     ---------------------------------
     HESSIAN MATRIX CONTROL PARAMETERS
     ---------------------------------
     METHOD=SEMINUM    NVIB  =       2   VIBSIZ= 0.01000
     RDHESS=       F   PURIFY=       F   PRTIFC=       F
     VIBANL=       T   DECOMP=       F   PROJCT=       F
     SCLFAC= 1.00000   PRTSCN=       F   NPRT  =       0
     PULCOR=       F   NPUN  =       0   REDOVB=       T
     HSSTYP=GENERAL 
     THERMOCHEMISTRY WILL BE PRINTED FOR    1 TEMPERATURES:
      298.15000
1   ATOM  0
                                        -------------------
   COORD  0                             NUCLEAR COORDINATES
                                        -------------------
     VIB  0

                       ATOM             X              Y              Z

                 1  C                0.072737      -0.000000      -0.029188
                 2  O               -0.145627      -0.000000       2.627099
                 3  O                2.144440       0.000000      -1.185553
                 4  H                1.700092       0.000000       3.175215
                 5  H               -1.864908       0.000000      -0.879931

          ********************
          1 ELECTRON INTEGRALS
          ********************
 ...... END OF ONE-ELECTRON INTEGRALS ......
 STEP CPU TIME =     0.00 TOTAL CPU TIME =          0.0 (      0.0 MIN)
 TOTAL WALL CLOCK TIME=          0.0 SECONDS, CPU UTILIZATION IS     0.00%

          -------------
          GUESS OPTIONS
          -------------
          GUESS =HUCKEL            NORB  =       0          NORDER=       0
          MIX   =       F          PRTMO =       F          PUNMO =       F
          TOLZ  = 1.0E-08          TOLE  = 1.0E-05
          SYMDEN=       F          PURIFY=       F

 INITIAL GUESS ORBITALS GENERATED BY HUCKEL   ROUTINE.
 HUCKEL GUESS REQUIRES      6786 WORDS.

 SYMMETRIES FOR INITIAL GUESS ORBITALS FOLLOW.   BOTH SET(S).
    12 ORBITALS ARE OCCUPIED (    3 CORE ORBITALS).
     4=A        5=A        6=A        7=A        8=A        9=A       10=A   
    11=A       12=A       13=A       14=A       15=A       16=A       17=A   
 ...... END OF INITIAL ORBITAL SELECTION ......
 STEP CPU TIME =     0.00 TOTAL CPU TIME =          0.0 (      0.0 MIN)
 TOTAL WALL CLOCK TIME=          0.0 SECONDS, CPU UTILIZATION IS     0.00%

                    ----------------------
                    AO INTEGRAL TECHNOLOGY
                    ----------------------
     S,P,L SHELL ROTATED AXIS INTEGRALS, REPROGRAMMED BY
        KAZUYA ISHIMURA (IMS) AND JOSE SIERRA (SYNSTAR).
     S,P,D,L SHELL ROTATED AXIS INTEGRALS PROGRAMMED BY
        KAZUYA ISHIMURA (INSTITUTE FOR MOLECULAR SCIENCE).
     S,P,D,F,G SHELL TO TOTAL QUARTET ANGULAR MOMENTUM SUM 5,
        ERIC PROGRAM BY GRAHAM FLETCHER (ELORET AND NASA ADVANCED
        SUPERCOMPUTING DIVISION, AMES RESEARCH CENTER).
     S,P,D,F,G,L SHELL GENERAL RYS QUADRATURE PROGRAMMED BY
        MICHEL DUPUIS (PACIFIC NORTHWEST NATIONAL LABORATORY).

          --------------------
          2 ELECTRON INTEGRALS
          --------------------

 THE -PK- OPTION IS OFF, THE INTEGRALS ARE NOT IN SUPERMATRIX FORM.
 STORING   15000 INTEGRALS/RECORD ON DISK, USING 12 BYTES/INTEGRAL.
 TWO ELECTRON INTEGRAL EVALUATION REQUIRES   89392 WORDS OF MEMORY.
 II,JST,KST,LST =  1  1  1  1 NREC =         1 INTLOC =    1
 II,JST,KST,LST =  2  1  1  1 NREC =         1 INTLOC =    2
 II,JST,KST,LST =  3  1  1  1 NREC =         1 INTLOC =   34
 II,JST,KST,LST =  4  1  1  1 NREC =         1 INTLOC =  101
 II,JST,KST,LST =  5  1  1  1 NREC =         1 INTLOC =  812
 II,JST,KST,LST =  6  1  1  1 NREC =         1 INTLOC = 1178
 II,JST,KST,LST =  7  1  1  1 NREC =         1 INTLOC = 3957
 II,JST,KST,LST =  8  1  1  1 NREC =         1 INTLOC = 5233
 TOTAL NUMBER OF NONZERO TWO-ELECTRON INTEGRALS =                6792
          1 INTEGRAL RECORDS WERE STORED ON DISK FILE  8.
  ...... END OF TWO-ELECTRON INTEGRALS .....
 STEP CPU TIME =     0.01 TOTAL CPU TIME =          0.0 (      0.0 MIN)
 TOTAL WALL CLOCK TIME=          0.0 SECONDS, CPU UTILIZATION IS   100.00%

          --------------------------
                 RHF SCF CALCULATION
          --------------------------

     NUCLEAR ENERGY =        67.3385558514
     MAXIT =   30     NPUNCH=    2
     EXTRAP=T  DAMP=F  SHIFT=F  RSTRCT=F  DIIS=F  DEM=F  SOSCF=T
     DENSITY MATRIX CONV=  1.00E-06
     SOSCF WILL OPTIMIZE      60 ORBITAL ROTATIONS, SOGTOL=   0.250
     MEMORY REQUIRED FOR RHF ITERS=     32501 WORDS.

 ITER EX DEM     TOTAL ENERGY        E CHANGE  DENSITY CHANGE     ORB. GRAD
   1  0  0     -185.8196997560  -185.8196997560   0.613889427   0.000000000
          ---------------START SECOND ORDER SCF---------------
   2  1  0     -186.1555984213    -0.3358986653   0.310854971   0.109054803
   3  2  0     -186.1828342183    -0.0272357971   0.149323783   0.082334057
   4  3  0     -186.2115296455    -0.0286954272   0.027777725   0.009194008
   5  4  0     -186.2123750134    -0.0008453679   0.009603013   0.003269684
   6  5  0     -186.2124934392    -0.0001184258   0.003707582   0.001103995
   7  6  0     -186.2125073207    -0.0000138815   0.000770557   0.000280663
   8  7  0     -186.2125080463    -0.0000007256   0.000309475   0.000091907
   9  8  0     -186.2125081347    -0.0000000884   0.000129639   0.000025439
  10  9  0     -186.2125081448    -0.0000000101   0.000035582   0.000010702
  11 10  0     -186.2125081460    -0.0000000012   0.000007527   0.000003056
  12 11  0     -186.2125081461    -0.0000000001   0.000001827   0.000000713
  13 12  0     -186.2125081461    -0.0000000000   0.000000458   0.000000215

          -----------------
          DENSITY CONVERGED
          -----------------
     TIME TO FORM FOCK OPERATORS=       0.0 SECONDS (       0.0 SEC/ITER)
     TIME TO SOLVE SCF EQUATIONS=       0.0 SECONDS (       0.0 SEC/ITER)

 FINAL RHF ENERGY IS     -186.2125081461 AFTER  13 ITERATIONS

          ------------
          EIGENVECTORS
          ------------

                      1          2          3          4          5
                  -20.3190   -20.2757   -11.1713    -1.3596    -1.2680
                     A          A          A          A          A   
    1  C  1  S    0.000487   0.000539   0.992842  -0.124298  -0.039010
    2  C  1  S   -0.004130  -0.006443   0.030875   0.302005   0.091172
    3  C  1  X    0.000495  -0.005301   0.000127   0.081767   0.127474
    4  C  1  Y    0.000000   0.000000  -0.000000   0.000000   0.000000
    5  C  1  Z   -0.004253   0.002844  -0.000110   0.033556  -0.152928
    6  O  2  S    0.994239  -0.000752   0.000359  -0.162855   0.162658
    7  O  2  S    0.025538   0.000199  -0.004003   0.581452  -0.597173
    8  O  2  X    0.003149   0.000457   0.000117   0.068632  -0.056892
    9  O  2  Y    0.000000   0.000000  -0.000000   0.000000   0.000000
   10  O  2  Z   -0.002415  -0.000062   0.002598  -0.077281   0.031664
   11  O  3  S    0.000693   0.994330   0.000198  -0.137767  -0.174165
   12  O  3  S    0.000164   0.025353  -0.005236   0.478524   0.622810
   13  O  3  X    0.000212  -0.004511   0.001496  -0.093334  -0.096053
   14  O  3  Y    0.000000   0.000000  -0.000000   0.000000   0.000000
   15  O  3  Z    0.000498   0.002565  -0.000876   0.064609   0.047264
   16  H  4  S   -0.005331  -0.000110  -0.001449   0.090106  -0.101087
   17  H  5  S    0.000254   0.000009  -0.006307   0.032190   0.008619

                      6          7          8          9         10
                   -0.7924    -0.6050    -0.5871    -0.5178    -0.4729
                     A          A          A          A          A   
    1  C  1  S   -0.167348   0.039332   0.060714  -0.000000   0.001156
    2  C  1  S    0.549610  -0.157455  -0.195549  -0.000000  -0.007921
    3  C  1  X   -0.247982  -0.319449  -0.176910  -0.000000  -0.290807
    4  C  1  Y   -0.000000   0.000000  -0.000000   0.501804  -0.000000
    5  C  1  Z   -0.003625  -0.384954   0.271845  -0.000000   0.155451
    6  O  2  S    0.043431  -0.053760  -0.047351  -0.000000   0.074914
    7  O  2  S   -0.188784   0.262416   0.231084  -0.000000  -0.390794
    8  O  2  X   -0.164650  -0.118357  -0.443783  -0.000000   0.517290
    9  O  2  Y   -0.000000   0.000000  -0.000000   0.661727  -0.000000
   10  O  2  Z   -0.260583   0.427890  -0.175518  -0.000000  -0.204795
   11  O  3  S    0.074842  -0.038946  -0.091573  -0.000000  -0.046908
   12  O  3  S   -0.323702   0.193392   0.461983  -0.000000   0.259111
   13  O  3  X   -0.145801  -0.030514   0.406350  -0.000000   0.466242
   14  O  3  Y   -0.000000   0.000000  -0.000000   0.378194  -0.000000
   15  O  3  Z    0.009216  -0.413167  -0.146085  -0.000000  -0.123300
   16  H  4  S   -0.219554   0.100111  -0.350887  -0.000000   0.309951
   17  H  5  S    0.306092   0.254443  -0.075314  -0.000000   0.237233

                     11         12         13         14         15
                   -0.3593    -0.3574     0.2789     0.5355     0.6107
                     A          A          A          A          A   
    1  C  1  S   -0.003836   0.000000   0.000000  -0.113884  -0.183710
    2  C  1  S   -0.008732   0.000000   0.000000   0.633331   1.073244
    3  C  1  X   -0.055418   0.000000   0.000000  -0.206002  -0.146170
    4  C  1  Y    0.000000  -0.317702   0.840553   0.000000  -0.000000
    5  C  1  Z   -0.087774   0.000000   0.000000   0.255762   0.044460
    6  O  2  S   -0.003167   0.000000   0.000000   0.114946  -0.002117
    7  O  2  S    0.014066   0.000000   0.000000  -0.723842   0.031546
    8  O  2  X   -0.173514   0.000000   0.000000  -0.655725   0.423282
    9  O  2  Y    0.000000   0.699973  -0.303587   0.000000  -0.000000
   10  O  2  Z    0.374662   0.000000   0.000000   0.206095   0.610267
   11  O  3  S    0.003266   0.000000   0.000000   0.015952   0.041459
   12  O  3  S   -0.014732   0.000000   0.000000  -0.079477  -0.261779
   13  O  3  X    0.396455   0.000000   0.000000   0.050058   0.360364
   14  O  3  Y    0.000000  -0.630559  -0.705979   0.000000  -0.000000
   15  O  3  Z    0.779750   0.000000   0.000000  -0.144382  -0.173033
   16  H  4  S    0.044211   0.000000   0.000000   0.886230  -0.628501
   17  H  5  S    0.283107   0.000000   0.000000  -0.499490  -0.689615

                     16         17
                    0.6632     0.8932
                     A          A   
    1  C  1  S    0.009690  -0.058202
    2  C  1  S   -0.129428   0.384032
    3  C  1  X    0.528850   1.072389
    4  C  1  Y   -0.000000  -0.000000
    5  C  1  Z    0.958930  -0.527340
    6  O  2  S    0.049229  -0.013076
    7  O  2  S   -0.312337   0.089822
    8  O  2  X   -0.014016  -0.232629
    9  O  2  Y   -0.000000  -0.000000
   10  O  2  Z    0.576583  -0.204936
   11  O  3  S   -0.003769   0.104466
   12  O  3  S    0.024385  -0.753475
   13  O  3  X   -0.191150   0.743308
   14  O  3  Y   -0.000000  -0.000000
   15  O  3  Z   -0.269117  -0.426652
   16  H  4  S   -0.156011   0.098775
   17  H  5  S    0.798082   0.349455
 ...... END OF RHF CALCULATION ......
 STEP CPU TIME =     0.00 TOTAL CPU TIME =          0.0 (      0.0 MIN)
 TOTAL WALL CLOCK TIME=          0.0 SECONDS, CPU UTILIZATION IS    50.00%

     ----------------------------------------------------------------
     PROPERTY VALUES FOR THE RHF   SELF-CONSISTENT FIELD WAVEFUNCTION
     ----------------------------------------------------------------

          -----------------
          ENERGY COMPONENTS
          -----------------

         WAVEFUNCTION NORMALIZATION =       1.0000000000

                ONE ELECTRON ENERGY =    -390.9307710560
                TWO ELECTRON ENERGY =     137.3797070585
           NUCLEAR REPULSION ENERGY =      67.3385558514
                                      ------------------
                       TOTAL ENERGY =    -186.2125081461

 ELECTRON-ELECTRON POTENTIAL ENERGY =     137.3797070585
  NUCLEUS-ELECTRON POTENTIAL ENERGY =    -575.3919650549
   NUCLEUS-NUCLEUS POTENTIAL ENERGY =      67.3385558514
                                      ------------------
             TOTAL POTENTIAL ENERGY =    -370.6737021450
               TOTAL KINETIC ENERGY =     184.4611939989
                 VIRIAL RATIO (V/T) =       2.0094942145

  ...... PI ENERGY ANALYSIS ......

 ENERGY ANALYSIS:
            FOCK ENERGY=   -116.1713574316
          BARE H ENERGY=   -390.9307710560
     ELECTRONIC ENERGY =   -253.5510642438
         KINETIC ENERGY=    184.4611939989
          N-N REPULSION=     67.3385558514
           TOTAL ENERGY=   -186.2125083924
        SIGMA PART(1+2)=   -230.8414886612
               (K,V1,2)=    175.8442998837   -523.1062879096    116.4204993646
           PI PART(1+2)=    -22.7095755826
               (K,V1,2)=      8.6168941151    -52.2856771453     20.9592074476
  SIGMA SKELETON, ERROR=   -163.5029328098     -0.0000000000
             MIXED PART= 0.00000E+00 0.00000E+00 0.00000E+00 0.00000E+00
 ...... END OF PI ENERGY ANALYSIS ......

          ---------------------------------------
          MULLIKEN AND LOWDIN POPULATION ANALYSES
          ---------------------------------------

     ATOMIC MULLIKEN POPULATION IN EACH MOLECULAR ORBITAL

                      1          2          3          4          5

                  2.000000   2.000000   2.000000   2.000000   2.000000

    1            -0.000576  -0.001221   2.001803   0.457971   0.282349
    2             2.001124   0.000001  -0.000363   0.836401   0.760967
    3             0.000001   2.001220  -0.000587   0.614790   0.886498
    4            -0.000552  -0.000001  -0.000033   0.077681   0.069756
    5             0.000002   0.000000  -0.000821   0.013157   0.000430

                      6          7          8          9         10

                  2.000000   2.000000   2.000000   2.000000   2.000000

    1             0.879449   0.702109   0.303847   0.668535   0.226752
    2             0.364097   0.594861   0.654157   0.969951   0.830875
    3             0.209598   0.484035   0.730153   0.361515   0.610725
    4             0.144444   0.019306   0.295468   0.000000   0.194544
    5             0.402412   0.199688   0.016375   0.000000   0.137103

                     11         12

                  2.000000   2.000000

    1             0.026704   0.217529
    2             0.338912   0.914266
    3             1.472988   0.868204
    4             0.004205   0.000000
    5             0.157191   0.000000

               ----- POPULATIONS IN EACH AO -----
                             MULLIKEN      LOWDIN
              1  C  1  S      1.99388     1.98597
              2  C  1  S      1.13879     1.08484
              3  C  1  X      0.93072     0.97167
              4  C  1  Y      0.88606     0.88982
              5  C  1  Z      0.81580     0.87095
              6  O  2  S      1.99788     1.99621
              7  O  2  S      1.84603     1.72533
              8  O  2  X      1.33409     1.34438
              9  O  2  Y      1.88422     1.88122
             10  O  2  Z      1.20304     1.23254
             11  O  3  S      1.99826     1.99735
             12  O  3  S      1.87913     1.78041
             13  O  3  X      1.39553     1.43566
             14  O  3  Y      1.22972     1.22896
             15  O  3  Z      1.73650     1.74930
             16  H  4  S      0.80482     0.85644
             17  H  5  S      0.92554     0.96894

          ----- MULLIKEN ATOMIC OVERLAP POPULATIONS -----
          (OFF-DIAGONAL ELEMENTS NEED TO BE MULTIPLIED BY 2)

             1           2           3           4           5

    1    4.7571857
    2    0.2687770   7.7891369
    3    0.4184264  -0.0147148   7.8539890
    4   -0.0411777   0.2478287  -0.0008890   0.5954803
    5    0.3620400  -0.0257760  -0.0176718   0.0035768   0.6033690

          TOTAL MULLIKEN AND LOWDIN ATOMIC POPULATIONS
       ATOM         MULL.POP.    CHARGE          LOW.POP.     CHARGE
    1 C             5.765251    0.234749         5.803251    0.196749
    2 O             8.265252   -0.265252         8.179678   -0.179678
    3 O             8.239140   -0.239140         8.191683   -0.191683
    4 H             0.804819    0.195181         0.856443    0.143557
    5 H             0.925538    0.074462         0.968944    0.031056

          -------------------------------
          BOND ORDER AND VALENCE ANALYSIS     BOND ORDER THRESHOLD=0.050
          -------------------------------

                   BOND                       BOND                       BOND
  ATOM PAIR DIST  ORDER      ATOM PAIR DIST  ORDER      ATOM PAIR DIST  ORDER
    1   2  1.410  1.025        1   3  1.256  1.944        1   5  1.120  0.922
    2   3  2.354  0.155        2   4  1.019  0.935

                       TOTAL       BONDED        FREE
      ATOM            VALENCE     VALENCE     VALENCE
    1 C                 3.901       3.901       0.000
    2 O                 2.132       2.132       0.000
    3 O                 2.149       2.149      -0.000
    4 H                 0.962       0.962      -0.000
    5 H                 0.994       0.994       0.000

          ---------------------
          ELECTROSTATIC MOMENTS
          ---------------------

 POINT   1           X           Y           Z (BOHR)    CHARGE
                 0.710297    0.000000    0.543857        0.00 (A.U.)
         DX          DY          DZ         /D/  (DEBYE)
    -0.363370    0.000000    0.525937    0.639256
 ...... END OF PROPERTY EVALUATION ......
 STEP CPU TIME =     0.01 TOTAL CPU TIME =          0.0 (      0.0 MIN)
 TOTAL WALL CLOCK TIME=          0.0 SECONDS, CPU UTILIZATION IS   100.00%

 -------------------------------   -----------------------------
 MP2 ENERGY GRADIENT CALCULATION   PROGRAM WRITTEN BY K.ISHIMURA
 -------------------------------   -----------------------------
 NUMBER OF OCCUPIED ORBITALS            =   12
 NUMBER OF VIRTUAL ORBITALS             =    5
 NUMBER OF ACTIVE OCCUPIED ORBITALS     =    9
 NUMBER OF ACTIVE VIRTUAL ORBITALS      =    5
 NUMBER OF BASIS FUNCTIONS              =   17
 NUMBER OF BASIS SHELLS                 =    8
 AO INTEGRAL THRESHOLD                  = 1.00E-09
 HALF-TRANSFORMED INTEGRAL THRESHOLD    = 8.68E-10
   REQUIRED DISK =         0 MBYTES/PROCESSOR

 MAXIMUM MEMORY USED DURING MP2 GRADIENT=       32206 WORDS, OR       1 MWORDS.
 BEGINNING    1ST SHELL LOOP...
 .... DONE WITH 1ST THREE INDEX TRANSFORMATIONS ....
 STEP CPU TIME =     0.01 TOTAL CPU TIME =          0.0 (      0.0 MIN)
 TOTAL WALL CLOCK TIME=          0.0 SECONDS, CPU UTILIZATION IS    75.00%

 RESULTS OF MOLLER-PLESSET 2ND ORDER CORRECTION ARE
               E(0)=      -186.2125081461
               E(1)=         0.0
               E(2)=        -0.1685134482
             E(MP2)=      -186.3810215943
 .... DONE WITH 4TH INDEX TRANSFORMATION AND ENERGY ....
 STEP CPU TIME =     0.00 TOTAL CPU TIME =          0.0 (      0.0 MIN)
 TOTAL WALL CLOCK TIME=          0.0 SECONDS, CPU UTILIZATION IS    75.00%
 .... DONE WITH 1ST THREE INDEX TRANSFORMATIONS FOR GRADIENT ....
 STEP CPU TIME =     0.01 TOTAL CPU TIME =          0.0 (      0.0 MIN)
 TOTAL WALL CLOCK TIME=          0.0 SECONDS, CPU UTILIZATION IS    80.00%
 .... DONE WITH 4TH INDEX TRANSFORMATION FOR GRADIENT ....
 STEP CPU TIME =     0.00 TOTAL CPU TIME =          0.0 (      0.0 MIN)
 TOTAL WALL CLOCK TIME=          0.0 SECONDS, CPU UTILIZATION IS    80.00%
 CYCLE  1  Z-VECTOR ERROR= -0.202349E-01
 CYCLE  2  Z-VECTOR ERROR=  0.418135E-02
 CYCLE  3  Z-VECTOR ERROR= -0.121426E-02
 CYCLE  4  Z-VECTOR ERROR=  0.261275E-03
 CYCLE  5  Z-VECTOR ERROR= -0.615587E-04
 CYCLE  6  Z-VECTOR ERROR=  0.107109E-04
 CYCLE  7  Z-VECTOR ERROR= -0.128079E-05
 CYCLE  8  Z-VECTOR ERROR=  0.194505E-06
 CYCLE  9  Z-VECTOR ERROR= -0.195724E-07
 CYCLE 10  Z-VECTOR ERROR=  0.224913E-08
 CYCLE 11  Z-VECTOR ERROR= -0.216513E-09
 CYCLE 12  Z-VECTOR ERROR=  0.264113E-10
 .... DONE WITH RESPONSE EQUATIONS AND DENSITY ....
 STEP CPU TIME =     0.00 TOTAL CPU TIME =          0.0 (      0.0 MIN)
 TOTAL WALL CLOCK TIME=          0.0 SECONDS, CPU UTILIZATION IS    80.00%

 MP2 NATURAL ORBITAL OCCUPATION NUMBERS ARE
  2.0000 2.0000 2.0000 1.9981 1.9980 1.9958 1.9928 1.9893 1.9836 1.9802
  1.9742 1.9364 0.0695 0.0286 0.0218 0.0192 0.0125
 THERE ARE    23.8484 ELECTRONS IN PRINCIPAL MP2 NATURAL ORBITALS.
 THERE ARE     0.1516 ELECTRONS IN SECONDARY MP2 NATURAL ORBITALS.
 THE MP2 NATURAL ORBITALS HAVE BEEN PUNCHED.

 BEGINNING ONE ELECTRON GRADIENT...
 ..... END OF 1-ELECTRON GRADIENT ......
 STEP CPU TIME =     0.00 TOTAL CPU TIME =          0.0 (      0.0 MIN)
 TOTAL WALL CLOCK TIME=          0.0 SECONDS, CPU UTILIZATION IS    80.00%
 THE COARSE/FINE SCHWARZ SCREENINGS SKIPPED          0/         0 BLOCKS.
 THE NUMBER OF GRADIENT INTEGRAL BLOCKS COMPUTED WAS      2266
 MAXIMUM MEMORY USED DURING MP2 GRADIENT=       32206 WORDS, OR       1 MWORDS.
 ..... DONE WITH MP2 ENERGY .....
 STEP CPU TIME =     0.02 TOTAL CPU TIME =          0.1 (      0.0 MIN)
 TOTAL WALL CLOCK TIME=          0.1 SECONDS, CPU UTILIZATION IS   100.00%

     -------------------------------------------------
     MP2 PROPERTIES...FOR THE FIRST ORDER WAVEFUNCTION
          USING THE RESPONSE (OR RELAXED) DENSITY
     -------------------------------------------------

          -----------------
          ENERGY COMPONENTS
          -----------------

         WAVEFUNCTION NORMALIZATION =       1.0000000000

                ONE ELECTRON ENERGY =    -390.7629342226
                TWO ELECTRON ENERGY =     137.0433567769
           NUCLEAR REPULSION ENERGY =      67.3385558514
                                      ------------------
                       TOTAL ENERGY =    -186.3810215943

 ELECTRON-ELECTRON POTENTIAL ENERGY =     137.0433567769
  NUCLEUS-ELECTRON POTENTIAL ENERGY =    -575.3076554251
   NUCLEUS-NUCLEUS POTENTIAL ENERGY =      67.3385558514
                                      ------------------
             TOTAL POTENTIAL ENERGY =    -370.9257427969
               TOTAL KINETIC ENERGY =     184.5447212025
                 VIRIAL RATIO (V/T) =       2.0099504358

          ---------------------------------------
          MULLIKEN AND LOWDIN POPULATION ANALYSES
          ---------------------------------------

               ----- POPULATIONS IN EACH AO -----
                             MULLIKEN      LOWDIN
              1  C  1  S      1.99375     1.98582
              2  C  1  S      1.13938     1.08848
              3  C  1  X      0.91046     0.95615
              4  C  1  Y      0.96329     0.96494
              5  C  1  Z      0.81791     0.87292
              6  O  2  S      1.99799     1.99639
              7  O  2  S      1.85549     1.73662
              8  O  2  X      1.31458     1.32625
              9  O  2  Y      1.82897     1.82700
             10  O  2  Z      1.22910     1.25626
             11  O  3  S      1.99837     1.99750
             12  O  3  S      1.89042     1.78854
             13  O  3  X      1.39282     1.43041
             14  O  3  Y      1.20942     1.20974
             15  O  3  Z      1.69584     1.71021
             16  H  4  S      0.81952     0.86911
             17  H  5  S      0.94268     0.98363

          ----- MULLIKEN ATOMIC OVERLAP POPULATIONS -----
          (OFF-DIAGONAL ELEMENTS NEED TO BE MULTIPLIED BY 2)

             1           2           3           4           5

    1    4.8985934
    2    0.2414911   7.8013725
    3    0.3795464  -0.0159435   7.8423828
    4   -0.0372952   0.2268876  -0.0006052   0.6268182
    5    0.3424602  -0.0276702  -0.0185138   0.0037102   0.6426979

          TOTAL MULLIKEN AND LOWDIN ATOMIC POPULATIONS
       ATOM         MULL.POP.    CHARGE          LOW.POP.     CHARGE
    1 C             5.824796    0.175204         5.868317    0.131683
    2 O             8.226138   -0.226138         8.142524   -0.142524
    3 O             8.186867   -0.186867         8.136415   -0.136415
    4 H             0.819516    0.180484         0.869113    0.130887
    5 H             0.942684    0.057316         0.983631    0.016369

          -------------------------------
          BOND ORDER AND VALENCE ANALYSIS     BOND ORDER THRESHOLD=0.050
          -------------------------------

                   BOND                       BOND                       BOND
  ATOM PAIR DIST  ORDER      ATOM PAIR DIST  ORDER      ATOM PAIR DIST  ORDER
    1   2  1.410  0.995        1   3  1.256  1.790        1   5  1.120  0.887
    2   3  2.354  0.201        2   4  1.019  0.902        3   5  2.128  0.052

                       TOTAL       BONDED        FREE
      ATOM            VALENCE     VALENCE     VALENCE
    1 C                 3.906       3.680       0.226
    2 O                 2.225       2.118       0.107
    3 O                 2.250       2.051       0.199
    4 H                 0.967       0.931       0.036
    5 H                 0.997       0.971       0.026

          ---------------------
          ELECTROSTATIC MOMENTS
          ---------------------

 POINT   1           X           Y           Z (BOHR)    CHARGE
                 0.710297    0.000000    0.543857       -0.00 (A.U.)
         DX          DY          DZ         /D/  (DEBYE)
    -0.073326    0.000000    0.523084    0.528199
 ...... END OF PROPERTY EVALUATION ......
 STEP CPU TIME =     0.00 TOTAL CPU TIME =          0.1 (      0.0 MIN)
 TOTAL WALL CLOCK TIME=          0.1 SECONDS, CPU UTILIZATION IS    85.71%
 THE VIB 0 GRADIENT RMS = 1.29691789E-05

 THE VIB 0 GEOMETRY GRADIENT IS

 UNITS ARE HARTREE/BOHR    E'X               E'Y               E'Z 
    1 C               -0.000033272       0.000000000      -0.000005647
    2 O               -0.000003403       0.000000000       0.000008971
    3 O                0.000029197       0.000000000      -0.000016963
    4 H                0.000005537       0.000000000       0.000010311
    5 H                0.000001941       0.000000000       0.000003328
  $VIB   
          IVIB=   0 IATOM=   0 ICOORD=   0 E=     -186.3810215943
 -3.327225122E-05 0.000000000E+00-5.646776001E-06-3.402675228E-06 0.000000000E+00
  8.971263803E-06 2.919677496E-05 0.000000000E+00-1.696293913E-05 5.536672958E-06
  0.000000000E+00 1.031083795E-05 1.941480188E-06 0.000000000E+00 3.327617035E-06
 -7.332643548E-02 0.000000000E+00 5.230844790E-01
1   ATOM  1
                                        -------------------
   COORD  1                             NUCLEAR COORDINATES
                                        -------------------
     VIB  1

                       ATOM             X              Y              Z

                 1  C                0.082737      -0.000000      -0.029188
                 2  O               -0.145627      -0.000000       2.627099
                 3  O                2.144440       0.000000      -1.185553
                 4  H                1.700092       0.000000       3.175215
                 5  H               -1.864908       0.000000      -0.879931
 ...... END OF ONE-ELECTRON INTEGRALS ......
 STEP CPU TIME =     0.00 TOTAL CPU TIME =          0.1 (      0.0 MIN)
 TOTAL WALL CLOCK TIME=          0.1 SECONDS, CPU UTILIZATION IS    85.71%
 TOTAL NUMBER OF NONZERO TWO-ELECTRON INTEGRALS =                6792
          1 INTEGRAL RECORDS WERE STORED ON DISK FILE  8.
  ...... END OF TWO-ELECTRON INTEGRALS .....
 STEP CPU TIME =     0.00 TOTAL CPU TIME =          0.1 (      0.0 MIN)
 TOTAL WALL CLOCK TIME=          0.1 SECONDS, CPU UTILIZATION IS    85.71%

          --------------------------
                 RHF SCF CALCULATION
          --------------------------
     DENSITY MATRIX CONV=  1.00E-06

 ITER EX DEM     TOTAL ENERGY        E CHANGE  DENSITY CHANGE     ORB. GRAD
   1  0  0     -186.2128683697  -186.2128683697   0.002778448   0.000000000
          ---------------START SECOND ORDER SCF---------------
   2  1  0     -186.2128817654    -0.0000133957   0.000868577   0.000420512
   3  2  0     -186.2128835518    -0.0000017864   0.001016346   0.000194037
   4  3  0     -186.2128839092    -0.0000003574   0.000187481   0.000079795
   5  4  0     -186.2128839428    -0.0000000337   0.000047486   0.000014885
   6  5  0     -186.2128839451    -0.0000000022   0.000043513   0.000007026
   7  6  0     -186.2128839458    -0.0000000007   0.000002824   0.000001266
   8  7  0     -186.2128839459    -0.0000000000   0.000001099   0.000000414
   9  8  0     -186.2128839459    -0.0000000000   0.000000322   0.000000125

          -----------------
          DENSITY CONVERGED
          -----------------
     TIME TO FORM FOCK OPERATORS=       0.0 SECONDS (       0.0 SEC/ITER)
     TIME TO SOLVE SCF EQUATIONS=       0.0 SECONDS (       0.0 SEC/ITER)

 FINAL RHF ENERGY IS     -186.2128839459 AFTER   9 ITERATIONS
 ...... END OF RHF CALCULATION ......
 STEP CPU TIME =     0.01 TOTAL CPU TIME =          0.1 (      0.0 MIN)
 TOTAL WALL CLOCK TIME=          0.1 SECONDS, CPU UTILIZATION IS   100.00%

 -------------------------------   -----------------------------
 MP2 ENERGY GRADIENT CALCULATION   PROGRAM WRITTEN BY K.ISHIMURA
 -------------------------------   -----------------------------
 NUMBER OF OCCUPIED ORBITALS            =   12
 NUMBER OF VIRTUAL ORBITALS             =    5
 NUMBER OF ACTIVE OCCUPIED ORBITALS     =    9
 NUMBER OF ACTIVE VIRTUAL ORBITALS      =    5
 NUMBER OF BASIS FUNCTIONS              =   17
 NUMBER OF BASIS SHELLS                 =    8
 AO INTEGRAL THRESHOLD                  = 1.00E-09
 HALF-TRANSFORMED INTEGRAL THRESHOLD    = 8.75E-10
   REQUIRED DISK =         0 MBYTES/PROCESSOR

 MAXIMUM MEMORY USED DURING MP2 GRADIENT=       32206 WORDS, OR       1 MWORDS.
 BEGINNING    1ST SHELL LOOP...
 .... DONE WITH 1ST THREE INDEX TRANSFORMATIONS ....
 STEP CPU TIME =     0.01 TOTAL CPU TIME =          0.1 (      0.0 MIN)
 TOTAL WALL CLOCK TIME=          0.1 SECONDS, CPU UTILIZATION IS    88.89%

 RESULTS OF MOLLER-PLESSET 2ND ORDER CORRECTION ARE
               E(0)=      -186.2128839459
               E(1)=         0.0
               E(2)=        -0.1680862907
             E(MP2)=      -186.3809702366
 .... DONE WITH 4TH INDEX TRANSFORMATION AND ENERGY ....
 STEP CPU TIME =     0.00 TOTAL CPU TIME =          0.1 (      0.0 MIN)
 TOTAL WALL CLOCK TIME=          0.1 SECONDS, CPU UTILIZATION IS    88.89%
 .... DONE WITH 1ST THREE INDEX TRANSFORMATIONS FOR GRADIENT ....
 STEP CPU TIME =     0.01 TOTAL CPU TIME =          0.1 (      0.0 MIN)
 TOTAL WALL CLOCK TIME=          0.1 SECONDS, CPU UTILIZATION IS   100.00%
 .... DONE WITH 4TH INDEX TRANSFORMATION FOR GRADIENT ....
 STEP CPU TIME =     0.00 TOTAL CPU TIME =          0.1 (      0.0 MIN)
 TOTAL WALL CLOCK TIME=          0.1 SECONDS, CPU UTILIZATION IS    90.00%
 CYCLE  1  Z-VECTOR ERROR= -0.201954E-01
 CYCLE  2  Z-VECTOR ERROR=  0.417174E-02
 CYCLE  3  Z-VECTOR ERROR= -0.122967E-02
 CYCLE  4  Z-VECTOR ERROR=  0.271594E-03
 CYCLE  5  Z-VECTOR ERROR= -0.622548E-04
 CYCLE  6  Z-VECTOR ERROR=  0.106345E-04
 CYCLE  7  Z-VECTOR ERROR= -0.123928E-05
 CYCLE  8  Z-VECTOR ERROR=  0.184663E-06
 CYCLE  9  Z-VECTOR ERROR= -0.192826E-07
 CYCLE 10  Z-VECTOR ERROR=  0.225729E-08
 CYCLE 11  Z-VECTOR ERROR= -0.203601E-09
 CYCLE 12  Z-VECTOR ERROR=  0.172869E-10
 .... DONE WITH RESPONSE EQUATIONS AND DENSITY ....
 STEP CPU TIME =     0.00 TOTAL CPU TIME =          0.1 (      0.0 MIN)
 TOTAL WALL CLOCK TIME=          0.1 SECONDS, CPU UTILIZATION IS    90.00%
 ..... END OF 1-ELECTRON GRADIENT ......
 STEP CPU TIME =     0.00 TOTAL CPU TIME =          0.1 (      0.0 MIN)
 TOTAL WALL CLOCK TIME=          0.1 SECONDS, CPU UTILIZATION IS    90.00%
 THE COARSE/FINE SCHWARZ SCREENINGS SKIPPED          0/         0 BLOCKS.
 THE NUMBER OF GRADIENT INTEGRAL BLOCKS COMPUTED WAS      2266
 MAXIMUM MEMORY USED DURING MP2 GRADIENT=       32206 WORDS, OR       1 MWORDS.
 ..... DONE WITH MP2 ENERGY .....
 STEP CPU TIME =     0.01 TOTAL CPU TIME =          0.1 (      0.0 MIN)
 TOTAL WALL CLOCK TIME=          0.1 SECONDS, CPU UTILIZATION IS    90.91%

 UNITS ARE HARTREE/BOHR    E'X               E'Y               E'Z 
    1 C                0.010322355       0.000000000      -0.001400991
    2 O               -0.001234977       0.000000000       0.000526250
    3 O               -0.005974381       0.000000000       0.002673710
    4 H                0.000000000       0.000000000      -0.000734748
    5 H               -0.003113002       0.000000000      -0.001064221
  $VIB   
          IVIB=   1 IATOM=   1 ICOORD=   1 E=     -186.3809702366
  1.032235479E-02 0.000000000E+00-1.400990935E-03-1.234977037E-03 0.000000000E+00
  5.262503969E-04-5.974381022E-03 0.000000000E+00 2.673709501E-03 0.000000000E+00
  0.000000000E+00-7.347476665E-04-3.113001941E-03 0.000000000E+00-1.064221293E-03
 -6.267105602E-02 0.000000000E+00 5.237695758E-01
1   ATOM  1
                                        -------------------
   COORD  2                             NUCLEAR COORDINATES
                                        -------------------
     VIB  1

                       ATOM             X              Y              Z

                 1  C                0.072737       0.010000      -0.029188
                 2  O               -0.145627      -0.000000       2.627099
                 3  O                2.144440       0.000000      -1.185553
                 4  H                1.700092       0.000000       3.175215
                 5  H               -1.864908       0.000000      -0.879931
 ...... END OF ONE-ELECTRON INTEGRALS ......
 STEP CPU TIME =     0.00 TOTAL CPU TIME =          0.1 (      0.0 MIN)
 TOTAL WALL CLOCK TIME=          0.1 SECONDS, CPU UTILIZATION IS    90.91%
 TOTAL NUMBER OF NONZERO TWO-ELECTRON INTEGRALS =               10062
          1 INTEGRAL RECORDS WERE STORED ON DISK FILE  8.
  ...... END OF TWO-ELECTRON INTEGRALS .....
 STEP CPU TIME =     0.01 TOTAL CPU TIME =          0.1 (      0.0 MIN)
 TOTAL WALL CLOCK TIME=          0.1 SECONDS, CPU UTILIZATION IS    91.67%

          --------------------------
                 RHF SCF CALCULATION
          --------------------------
     DENSITY MATRIX CONV=  1.00E-06

 ITER EX DEM     TOTAL ENERGY        E CHANGE  DENSITY CHANGE     ORB. GRAD
   1  0  0     -186.2124748054  -186.2124748054   0.003429605   0.000000000
          ---------------START SECOND ORDER SCF---------------
   2  1  0     -186.2124942680    -0.0000194625   0.001145660   0.000619273
   3  2  0     -186.2124969323    -0.0000026643   0.000687741   0.000222657
   4  3  0     -186.2124974005    -0.0000004682   0.000068682   0.000021412
   5  4  0     -186.2124974059    -0.0000000054   0.000057184   0.000010970
   6  5  0     -186.2124974076    -0.0000000017   0.000004882   0.000001796
   7  6  0     -186.2124974076    -0.0000000000   0.000007478   0.000001093
   8  7  0     -186.2124974076    -0.0000000000   0.000001412   0.000000343
   9  8  0     -186.2124974076    -0.0000000000   0.000000698   0.000000130

          -----------------
          DENSITY CONVERGED
          -----------------
     TIME TO FORM FOCK OPERATORS=       0.0 SECONDS (       0.0 SEC/ITER)
     TIME TO SOLVE SCF EQUATIONS=       0.0 SECONDS (       0.0 SEC/ITER)

 FINAL RHF ENERGY IS     -186.2124974076 AFTER   9 ITERATIONS
 ...... END OF RHF CALCULATION ......
 STEP CPU TIME =     0.01 TOTAL CPU TIME =          0.1 (      0.0 MIN)
 TOTAL WALL CLOCK TIME=          0.1 SECONDS, CPU UTILIZATION IS   100.00%

 -------------------------------   -----------------------------
 MP2 ENERGY GRADIENT CALCULATION   PROGRAM WRITTEN BY K.ISHIMURA
 -------------------------------   -----------------------------
 NUMBER OF OCCUPIED ORBITALS            =   12
 NUMBER OF VIRTUAL ORBITALS             =    5
 NUMBER OF ACTIVE OCCUPIED ORBITALS     =    9
 NUMBER OF ACTIVE VIRTUAL ORBITALS      =    5
 NUMBER OF BASIS FUNCTIONS              =   17
 NUMBER OF BASIS SHELLS                 =    8
 AO INTEGRAL THRESHOLD                  = 1.00E-09
 HALF-TRANSFORMED INTEGRAL THRESHOLD    = 8.68E-10
   REQUIRED DISK =         0 MBYTES/PROCESSOR

 MAXIMUM MEMORY USED DURING MP2 GRADIENT=       32206 WORDS, OR       1 MWORDS.
 BEGINNING    1ST SHELL LOOP...
 .... DONE WITH 1ST THREE INDEX TRANSFORMATIONS ....
 STEP CPU TIME =     0.01 TOTAL CPU TIME =          0.1 (      0.0 MIN)
 TOTAL WALL CLOCK TIME=          0.1 SECONDS, CPU UTILIZATION IS    92.86%

 RESULTS OF MOLLER-PLESSET 2ND ORDER CORRECTION ARE
               E(0)=      -186.2124974076
               E(1)=         0.0
               E(2)=        -0.1685167349
             E(MP2)=      -186.3810141425
 .... DONE WITH 4TH INDEX TRANSFORMATION AND ENERGY ....
 STEP CPU TIME =     0.00 TOTAL CPU TIME =          0.1 (      0.0 MIN)
 TOTAL WALL CLOCK TIME=          0.1 SECONDS, CPU UTILIZATION IS    92.86%
 .... DONE WITH 1ST THREE INDEX TRANSFORMATIONS FOR GRADIENT ....
 STEP CPU TIME =     0.00 TOTAL CPU TIME =          0.1 (      0.0 MIN)
 TOTAL WALL CLOCK TIME=          0.1 SECONDS, CPU UTILIZATION IS    92.86%
 .... DONE WITH 4TH INDEX TRANSFORMATION FOR GRADIENT ....
 STEP CPU TIME =     0.00 TOTAL CPU TIME =          0.1 (      0.0 MIN)
 TOTAL WALL CLOCK TIME=          0.1 SECONDS, CPU UTILIZATION IS    86.67%
 CYCLE  1  Z-VECTOR ERROR= -0.202363E-01
 CYCLE  2  Z-VECTOR ERROR=  0.418203E-02
 CYCLE  3  Z-VECTOR ERROR= -0.121499E-02
 CYCLE  4  Z-VECTOR ERROR=  0.261684E-03
 CYCLE  5  Z-VECTOR ERROR= -0.617918E-04
 CYCLE  6  Z-VECTOR ERROR=  0.109024E-04
 CYCLE  7  Z-VECTOR ERROR= -0.171067E-05
 CYCLE  8  Z-VECTOR ERROR=  0.628639E-06
 CYCLE  9  Z-VECTOR ERROR= -0.187580E-06
 CYCLE 10  Z-VECTOR ERROR=  0.351155E-07
 CYCLE 11  Z-VECTOR ERROR= -0.378975E-08
 CYCLE 12  Z-VECTOR ERROR=  0.749306E-09
 CYCLE 13  Z-VECTOR ERROR= -0.221651E-09
 CYCLE 14  Z-VECTOR ERROR=  0.265164E-10
 .... DONE WITH RESPONSE EQUATIONS AND DENSITY ....
 STEP CPU TIME =     0.01 TOTAL CPU TIME =          0.1 (      0.0 MIN)
 TOTAL WALL CLOCK TIME=          0.1 SECONDS, CPU UTILIZATION IS    93.33%
 ..... END OF 1-ELECTRON GRADIENT ......
 STEP CPU TIME =     0.00 TOTAL CPU TIME =          0.1 (      0.0 MIN)
 TOTAL WALL CLOCK TIME=          0.1 SECONDS, CPU UTILIZATION IS    93.33%
 THE COARSE/FINE SCHWARZ SCREENINGS SKIPPED          0/         0 BLOCKS.
 THE NUMBER OF GRADIENT INTEGRAL BLOCKS COMPUTED WAS      2266
 MAXIMUM MEMORY USED DURING MP2 GRADIENT=       32206 WORDS, OR       1 MWORDS.
 ..... DONE WITH MP2 ENERGY .....
 STEP CPU TIME =     0.01 TOTAL CPU TIME =          0.1 (      0.0 MIN)
 TOTAL WALL CLOCK TIME=          0.2 SECONDS, CPU UTILIZATION IS    93.75%

 UNITS ARE HARTREE/BOHR    E'X               E'Y               E'Z 
    1 C               -0.000034505       0.001492389      -0.000003634
    2 O               -0.000003201      -0.000405338       0.000012654
    3 O                0.000036633      -0.000544297      -0.000020680
    4 H                0.000004909      -0.000003555       0.000010190
    5 H               -0.000003837      -0.000539199       0.000001470
  $VIB   
          IVIB=   1 IATOM=   1 ICOORD=   2 E=     -186.3810141425
 -3.450458373E-05 1.492388692E-03-3.633958224E-06-3.200528098E-06-4.053383021E-04
  1.265425190E-05 3.663330227E-05-5.442972125E-04-2.067952749E-05 4.908777921E-06
 -3.554509859E-06 1.018964862E-05-3.836966594E-06-5.391986681E-04 1.469588859E-06
 -7.330321428E-02 4.881464900E-03 5.230599312E-01
1   ATOM  1
                                        -------------------
   COORD  3                             NUCLEAR COORDINATES
                                        -------------------
     VIB  1

                       ATOM             X              Y              Z

                 1  C                0.072737       0.000000      -0.019188
                 2  O               -0.145627      -0.000000       2.627099
                 3  O                2.144440       0.000000      -1.185553
                 4  H                1.700092       0.000000       3.175215
                 5  H               -1.864908       0.000000      -0.879931
 ...... END OF ONE-ELECTRON INTEGRALS ......
 STEP CPU TIME =     0.00 TOTAL CPU TIME =          0.1 (      0.0 MIN)
 TOTAL WALL CLOCK TIME=          0.2 SECONDS, CPU UTILIZATION IS    93.75%
 TOTAL NUMBER OF NONZERO TWO-ELECTRON INTEGRALS =                6793
          1 INTEGRAL RECORDS WERE STORED ON DISK FILE  8.
  ...... END OF TWO-ELECTRON INTEGRALS .....
 STEP CPU TIME =     0.00 TOTAL CPU TIME =          0.1 (      0.0 MIN)
 TOTAL WALL CLOCK TIME=          0.2 SECONDS, CPU UTILIZATION IS    88.24%

          --------------------------
                 RHF SCF CALCULATION
          --------------------------
     DENSITY MATRIX CONV=  1.00E-06

 ITER EX DEM     TOTAL ENERGY        E CHANGE  DENSITY CHANGE     ORB. GRAD
   1  0  0     -186.2122608129  -186.2122608129   0.002564538   0.000000000
          ---------------START SECOND ORDER SCF---------------
   2  1  0     -186.2122758001    -0.0000149872   0.000940442   0.000453137
   3  2  0     -186.2122778051    -0.0000020051   0.000778882   0.000185131
   4  3  0     -186.2122783017    -0.0000004965   0.000097502   0.000038393
   5  4  0     -186.2122783173    -0.0000000156   0.000104818   0.000016728
   6  5  0     -186.2122783216    -0.0000000043   0.000018210   0.000004203
   7  6  0     -186.2122783218    -0.0000000002   0.000008179   0.000002308
   8  7  0     -186.2122783218    -0.0000000001   0.000001950   0.000000675
   9  8  0     -186.2122783218    -0.0000000000   0.000000314   0.000000179

          -----------------
          DENSITY CONVERGED
          -----------------
     TIME TO FORM FOCK OPERATORS=       0.0 SECONDS (       0.0 SEC/ITER)
     TIME TO SOLVE SCF EQUATIONS=       0.0 SECONDS (       0.0 SEC/ITER)

 FINAL RHF ENERGY IS     -186.2122783218 AFTER   9 ITERATIONS
 ...... END OF RHF CALCULATION ......
 STEP CPU TIME =     0.01 TOTAL CPU TIME =          0.2 (      0.0 MIN)
 TOTAL WALL CLOCK TIME=          0.2 SECONDS, CPU UTILIZATION IS    94.12%

 -------------------------------   -----------------------------
 MP2 ENERGY GRADIENT CALCULATION   PROGRAM WRITTEN BY K.ISHIMURA
 -------------------------------   -----------------------------
 NUMBER OF OCCUPIED ORBITALS            =   12
 NUMBER OF VIRTUAL ORBITALS             =    5
 NUMBER OF ACTIVE OCCUPIED ORBITALS     =    9
 NUMBER OF ACTIVE VIRTUAL ORBITALS      =    5
 NUMBER OF BASIS FUNCTIONS              =   17
 NUMBER OF BASIS SHELLS                 =    8
 AO INTEGRAL THRESHOLD                  = 1.00E-09
 HALF-TRANSFORMED INTEGRAL THRESHOLD    = 8.47E-10
   REQUIRED DISK =         0 MBYTES/PROCESSOR

 MAXIMUM MEMORY USED DURING MP2 GRADIENT=       32206 WORDS, OR       1 MWORDS.
 BEGINNING    1ST SHELL LOOP...
 .... DONE WITH 1ST THREE INDEX TRANSFORMATIONS ....
 STEP CPU TIME =     0.01 TOTAL CPU TIME =          0.2 (      0.0 MIN)
 TOTAL WALL CLOCK TIME=          0.2 SECONDS, CPU UTILIZATION IS    94.44%

 RESULTS OF MOLLER-PLESSET 2ND ORDER CORRECTION ARE
               E(0)=      -186.2122783218
               E(1)=         0.0
               E(2)=        -0.1687043423
             E(MP2)=      -186.3809826642
 .... DONE WITH 4TH INDEX TRANSFORMATION AND ENERGY ....
 STEP CPU TIME =     0.00 TOTAL CPU TIME =          0.2 (      0.0 MIN)
 TOTAL WALL CLOCK TIME=          0.2 SECONDS, CPU UTILIZATION IS    94.44%
 .... DONE WITH 1ST THREE INDEX TRANSFORMATIONS FOR GRADIENT ....
 STEP CPU TIME =     0.01 TOTAL CPU TIME =          0.2 (      0.0 MIN)
 TOTAL WALL CLOCK TIME=          0.2 SECONDS, CPU UTILIZATION IS    94.74%
 .... DONE WITH 4TH INDEX TRANSFORMATION FOR GRADIENT ....
 STEP CPU TIME =     0.00 TOTAL CPU TIME =          0.2 (      0.0 MIN)
 TOTAL WALL CLOCK TIME=          0.2 SECONDS, CPU UTILIZATION IS    94.74%
 CYCLE  1  Z-VECTOR ERROR= -0.201005E-01
 CYCLE  2  Z-VECTOR ERROR=  0.417076E-02
 CYCLE  3  Z-VECTOR ERROR= -0.118582E-02
 CYCLE  4  Z-VECTOR ERROR=  0.248300E-03
 CYCLE  5  Z-VECTOR ERROR= -0.594574E-04
 CYCLE  6  Z-VECTOR ERROR=  0.106942E-04
 CYCLE  7  Z-VECTOR ERROR= -0.128831E-05
 CYCLE  8  Z-VECTOR ERROR=  0.196336E-06
 CYCLE  9  Z-VECTOR ERROR= -0.196876E-07
 CYCLE 10  Z-VECTOR ERROR=  0.225219E-08
 CYCLE 11  Z-VECTOR ERROR= -0.234833E-09
 CYCLE 12  Z-VECTOR ERROR=  0.334036E-10
 .... DONE WITH RESPONSE EQUATIONS AND DENSITY ....
 STEP CPU TIME =     0.00 TOTAL CPU TIME =          0.2 (      0.0 MIN)
 TOTAL WALL CLOCK TIME=          0.2 SECONDS, CPU UTILIZATION IS    94.74%
 ..... END OF 1-ELECTRON GRADIENT ......
 STEP CPU TIME =     0.00 TOTAL CPU TIME =          0.2 (      0.0 MIN)
 TOTAL WALL CLOCK TIME=          0.2 SECONDS, CPU UTILIZATION IS    90.00%
 THE COARSE/FINE SCHWARZ SCREENINGS SKIPPED          0/         0 BLOCKS.
 THE NUMBER OF GRADIENT INTEGRAL BLOCKS COMPUTED WAS      2266
 MAXIMUM MEMORY USED DURING MP2 GRADIENT=       32206 WORDS, OR       1 MWORDS.
 ..... DONE WITH MP2 ENERGY .....
 STEP CPU TIME =     0.02 TOTAL CPU TIME =          0.2 (      0.0 MIN)
 TOTAL WALL CLOCK TIME=          0.2 SECONDS, CPU UTILIZATION IS    95.24%

 UNITS ARE HARTREE/BOHR    E'X               E'Y               E'Z 
    1 C               -0.001329365       0.000000000       0.007817427
    2 O               -0.000354634       0.000000000      -0.003814893
    3 O                0.002662431       0.000000000      -0.002441859
    4 H                0.000212963       0.000000000      -0.000318728
    5 H               -0.001191395       0.000000000      -0.001241947
  $VIB   
          IVIB=   1 IATOM=   1 ICOORD=   3 E=     -186.3809826642
 -1.329364859E-03 0.000000000E+00 7.817427112E-03-3.546341872E-04 0.000000000E+00
 -3.814893096E-03 2.662430724E-03 0.000000000E+00-2.441859227E-03 2.129629842E-04
  0.000000000E+00-3.187275930E-04-1.191394660E-03 0.000000000E+00-1.241947191E-03
 -6.979522539E-02 0.000000000E+00 5.538612043E-01
1   ATOM  2
                                        -------------------
   COORD  1                             NUCLEAR COORDINATES
                                        -------------------
     VIB  1

                       ATOM             X              Y              Z

                 1  C                0.072737       0.000000      -0.029188
                 2  O               -0.135627      -0.000000       2.627099
                 3  O                2.144440       0.000000      -1.185553
                 4  H                1.700092       0.000000       3.175215
                 5  H               -1.864908       0.000000      -0.879931
 ...... END OF ONE-ELECTRON INTEGRALS ......
 STEP CPU TIME =     0.00 TOTAL CPU TIME =          0.2 (      0.0 MIN)
 TOTAL WALL CLOCK TIME=          0.2 SECONDS, CPU UTILIZATION IS    95.24%
 TOTAL NUMBER OF NONZERO TWO-ELECTRON INTEGRALS =                6792
          1 INTEGRAL RECORDS WERE STORED ON DISK FILE  8.
  ...... END OF TWO-ELECTRON INTEGRALS .....
 STEP CPU TIME =     0.00 TOTAL CPU TIME =          0.2 (      0.0 MIN)
 TOTAL WALL CLOCK TIME=          0.2 SECONDS, CPU UTILIZATION IS    95.24%

          --------------------------
                 RHF SCF CALCULATION
          --------------------------
     DENSITY MATRIX CONV=  1.00E-06

 ITER EX DEM     TOTAL ENERGY        E CHANGE  DENSITY CHANGE     ORB. GRAD
   1  0  0     -186.2128883072  -186.2128883072   0.002003877   0.000000000
          ---------------START SECOND ORDER SCF---------------
   2  1  0     -186.2128944789    -0.0000061716   0.000749505   0.000273218
   3  2  0     -186.2128952033    -0.0000007245   0.000466149   0.000117280
   4  3  0     -186.2128953327    -0.0000001293   0.000085296   0.000030992
   5  4  0     -186.2128953395    -0.0000000068   0.000020951   0.000012565
   6  5  0     -186.2128953405    -0.0000000010   0.000005431   0.000002189
   7  6  0     -186.2128953406    -0.0000000001   0.000002046   0.000000597
   8  7  0     -186.2128953406    -0.0000000000   0.000000757   0.000000235
   9  8  0     -186.2128953406    -0.0000000000   0.000000333   0.000000064

          -----------------
          DENSITY CONVERGED
          -----------------
     TIME TO FORM FOCK OPERATORS=       0.0 SECONDS (       0.0 SEC/ITER)
     TIME TO SOLVE SCF EQUATIONS=       0.0 SECONDS (       0.0 SEC/ITER)

 FINAL RHF ENERGY IS     -186.2128953406 AFTER   9 ITERATIONS
 ...... END OF RHF CALCULATION ......
 STEP CPU TIME =     0.00 TOTAL CPU TIME =          0.2 (      0.0 MIN)
 TOTAL WALL CLOCK TIME=          0.2 SECONDS, CPU UTILIZATION IS    90.91%

 -------------------------------   -----------------------------
 MP2 ENERGY GRADIENT CALCULATION   PROGRAM WRITTEN BY K.ISHIMURA
 -------------------------------   -----------------------------
 NUMBER OF OCCUPIED ORBITALS            =   12
 NUMBER OF VIRTUAL ORBITALS             =    5
 NUMBER OF ACTIVE OCCUPIED ORBITALS     =    9
 NUMBER OF ACTIVE VIRTUAL ORBITALS      =    5
 NUMBER OF BASIS FUNCTIONS              =   17
 NUMBER OF BASIS SHELLS                 =    8
 AO INTEGRAL THRESHOLD                  = 1.00E-09
 HALF-TRANSFORMED INTEGRAL THRESHOLD    = 8.70E-10
   REQUIRED DISK =         0 MBYTES/PROCESSOR

 MAXIMUM MEMORY USED DURING MP2 GRADIENT=       32206 WORDS, OR       1 MWORDS.
 BEGINNING    1ST SHELL LOOP...
 .... DONE WITH 1ST THREE INDEX TRANSFORMATIONS ....
 STEP CPU TIME =     0.02 TOTAL CPU TIME =          0.2 (      0.0 MIN)
 TOTAL WALL CLOCK TIME=          0.2 SECONDS, CPU UTILIZATION IS    95.65%

 RESULTS OF MOLLER-PLESSET 2ND ORDER CORRECTION ARE
               E(0)=      -186.2128953406
               E(1)=         0.0
               E(2)=        -0.1680955770
             E(MP2)=      -186.3809909176
 .... DONE WITH 4TH INDEX TRANSFORMATION AND ENERGY ....
 STEP CPU TIME =     0.00 TOTAL CPU TIME =          0.2 (      0.0 MIN)
 TOTAL WALL CLOCK TIME=          0.2 SECONDS, CPU UTILIZATION IS    95.65%
 .... DONE WITH 1ST THREE INDEX TRANSFORMATIONS FOR GRADIENT ....
 STEP CPU TIME =     0.01 TOTAL CPU TIME =          0.2 (      0.0 MIN)
 TOTAL WALL CLOCK TIME=          0.2 SECONDS, CPU UTILIZATION IS    95.83%
 .... DONE WITH 4TH INDEX TRANSFORMATION FOR GRADIENT ....
 STEP CPU TIME =     0.00 TOTAL CPU TIME =          0.2 (      0.0 MIN)
 TOTAL WALL CLOCK TIME=          0.2 SECONDS, CPU UTILIZATION IS    95.83%
 CYCLE  1  Z-VECTOR ERROR= -0.201410E-01
 CYCLE  2  Z-VECTOR ERROR=  0.414032E-02
 CYCLE  3  Z-VECTOR ERROR= -0.120368E-02
 CYCLE  4  Z-VECTOR ERROR=  0.258631E-03
 CYCLE  5  Z-VECTOR ERROR= -0.609813E-04
 CYCLE  6  Z-VECTOR ERROR=  0.106194E-04
 CYCLE  7  Z-VECTOR ERROR= -0.127332E-05
 CYCLE  8  Z-VECTOR ERROR=  0.192779E-06
 CYCLE  9  Z-VECTOR ERROR= -0.192725E-07
 CYCLE 10  Z-VECTOR ERROR=  0.219624E-08
 CYCLE 11  Z-VECTOR ERROR= -0.223637E-09
 CYCLE 12  Z-VECTOR ERROR=  0.312116E-10
 .... DONE WITH RESPONSE EQUATIONS AND DENSITY ....
 STEP CPU TIME =     0.00 TOTAL CPU TIME =          0.2 (      0.0 MIN)
 TOTAL WALL CLOCK TIME=          0.2 SECONDS, CPU UTILIZATION IS    95.83%
 ..... END OF 1-ELECTRON GRADIENT ......
 STEP CPU TIME =     0.00 TOTAL CPU TIME =          0.2 (      0.0 MIN)
 TOTAL WALL CLOCK TIME=          0.2 SECONDS, CPU UTILIZATION IS    95.83%
 THE COARSE/FINE SCHWARZ SCREENINGS SKIPPED          0/         0 BLOCKS.
 THE NUMBER OF GRADIENT INTEGRAL BLOCKS COMPUTED WAS      2266
 MAXIMUM MEMORY USED DURING MP2 GRADIENT=       32206 WORDS, OR       1 MWORDS.
 ..... DONE WITH MP2 ENERGY .....
 STEP CPU TIME =     0.01 TOTAL CPU TIME =          0.2 (      0.0 MIN)
 TOTAL WALL CLOCK TIME=          0.3 SECONDS, CPU UTILIZATION IS    92.31%

 UNITS ARE HARTREE/BOHR    E'X               E'Y               E'Z 
    1 C               -0.001265939       0.000000000      -0.000368393
    2 O                0.006164097       0.000000000       0.000895124
    3 O               -0.000002615       0.000000000       0.000571830
    4 H               -0.004926963       0.000000000      -0.000719475
    5 H                0.000031420       0.000000000      -0.000379086
  $VIB   
          IVIB=   1 IATOM=   2 ICOORD=   1 E=     -186.3809909176
 -1.265938704E-03 0.000000000E+00-3.683931270E-04 6.164097141E-03 0.000000000E+00
  8.951238188E-04-2.614741501E-06 0.000000000E+00 5.718297672E-04-4.926963257E-03
  0.000000000E+00-7.194745919E-04 3.141956291E-05 0.000000000E+00-3.790858632E-04
 -7.365131693E-02 0.000000000E+00 5.218232181E-01
1   ATOM  2
                                        -------------------
   COORD  2                             NUCLEAR COORDINATES
                                        -------------------
     VIB  1

                       ATOM             X              Y              Z

                 1  C                0.072737       0.000000      -0.029188
                 2  O               -0.145627       0.010000       2.627099
                 3  O                2.144440       0.000000      -1.185553
                 4  H                1.700092       0.000000       3.175215
                 5  H               -1.864908       0.000000      -0.879931
 ...... END OF ONE-ELECTRON INTEGRALS ......
 STEP CPU TIME =     0.00 TOTAL CPU TIME =          0.2 (      0.0 MIN)
 TOTAL WALL CLOCK TIME=          0.3 SECONDS, CPU UTILIZATION IS    92.31%
 TOTAL NUMBER OF NONZERO TWO-ELECTRON INTEGRALS =               10089
          1 INTEGRAL RECORDS WERE STORED ON DISK FILE  8.
  ...... END OF TWO-ELECTRON INTEGRALS .....
 STEP CPU TIME =     0.00 TOTAL CPU TIME =          0.2 (      0.0 MIN)
 TOTAL WALL CLOCK TIME=          0.3 SECONDS, CPU UTILIZATION IS    92.31%

          --------------------------
                 RHF SCF CALCULATION
          --------------------------
     DENSITY MATRIX CONV=  1.00E-06

 ITER EX DEM     TOTAL ENERGY        E CHANGE  DENSITY CHANGE     ORB. GRAD
   1  0  0     -186.2124935339  -186.2124935339   0.002360060   0.000000000
          ---------------START SECOND ORDER SCF---------------
   2  1  0     -186.2125030709    -0.0000095370   0.001058778   0.000511249
   3  2  0     -186.2125048253    -0.0000017544   0.000931036   0.000222502
   4  3  0     -186.2125053095    -0.0000004842   0.000115424   0.000035834
   5  4  0     -186.2125053239    -0.0000000145   0.000179038   0.000023856
   6  5  0     -186.2125053335    -0.0000000096   0.000021587   0.000006606
   7  6  0     -186.2125053341    -0.0000000006   0.000014612   0.000003526
   8  7  0     -186.2125053343    -0.0000000002   0.000001439   0.000000525
   9  8  0     -186.2125053343    -0.0000000000   0.000000618   0.000000281

          -----------------
          DENSITY CONVERGED
          -----------------
     TIME TO FORM FOCK OPERATORS=       0.0 SECONDS (       0.0 SEC/ITER)
     TIME TO SOLVE SCF EQUATIONS=       0.0 SECONDS (       0.0 SEC/ITER)

 FINAL RHF ENERGY IS     -186.2125053343 AFTER   9 ITERATIONS
 ...... END OF RHF CALCULATION ......
 STEP CPU TIME =     0.00 TOTAL CPU TIME =          0.2 (      0.0 MIN)
 TOTAL WALL CLOCK TIME=          0.3 SECONDS, CPU UTILIZATION IS    92.31%

 -------------------------------   -----------------------------
 MP2 ENERGY GRADIENT CALCULATION   PROGRAM WRITTEN BY K.ISHIMURA
 -------------------------------   -----------------------------
 NUMBER OF OCCUPIED ORBITALS            =   12
 NUMBER OF VIRTUAL ORBITALS             =    5
 NUMBER OF ACTIVE OCCUPIED ORBITALS     =    9
 NUMBER OF ACTIVE VIRTUAL ORBITALS      =    5
 NUMBER OF BASIS FUNCTIONS              =   17
 NUMBER OF BASIS SHELLS                 =    8
 AO INTEGRAL THRESHOLD                  = 1.00E-09
 HALF-TRANSFORMED INTEGRAL THRESHOLD    = 8.68E-10
   REQUIRED DISK =         0 MBYTES/PROCESSOR

 MAXIMUM MEMORY USED DURING MP2 GRADIENT=       32206 WORDS, OR       1 MWORDS.
 BEGINNING    1ST SHELL LOOP...
 .... DONE WITH 1ST THREE INDEX TRANSFORMATIONS ....
 STEP CPU TIME =     0.03 TOTAL CPU TIME =          0.3 (      0.0 MIN)
 TOTAL WALL CLOCK TIME=          0.3 SECONDS, CPU UTILIZATION IS    96.43%

 RESULTS OF MOLLER-PLESSET 2ND ORDER CORRECTION ARE
               E(0)=      -186.2125053343
               E(1)=         0.0
               E(2)=        -0.1685147069
             E(MP2)=      -186.3810200412
 .... DONE WITH 4TH INDEX TRANSFORMATION AND ENERGY ....
 STEP CPU TIME =     0.00 TOTAL CPU TIME =          0.3 (      0.0 MIN)
 TOTAL WALL CLOCK TIME=          0.3 SECONDS, CPU UTILIZATION IS    96.43%
 .... DONE WITH 1ST THREE INDEX TRANSFORMATIONS FOR GRADIENT ....
 STEP CPU TIME =     0.00 TOTAL CPU TIME =          0.3 (      0.0 MIN)
 TOTAL WALL CLOCK TIME=          0.3 SECONDS, CPU UTILIZATION IS    93.10%
 .... DONE WITH 4TH INDEX TRANSFORMATION FOR GRADIENT ....
 STEP CPU TIME =     0.00 TOTAL CPU TIME =          0.3 (      0.0 MIN)
 TOTAL WALL CLOCK TIME=          0.3 SECONDS, CPU UTILIZATION IS    93.10%
 CYCLE  1  Z-VECTOR ERROR= -0.202351E-01
 CYCLE  2  Z-VECTOR ERROR=  0.418139E-02
 CYCLE  3  Z-VECTOR ERROR= -0.121433E-02
 CYCLE  4  Z-VECTOR ERROR=  0.261301E-03
 CYCLE  5  Z-VECTOR ERROR= -0.615661E-04
 CYCLE  6  Z-VECTOR ERROR=  0.107146E-04
 CYCLE  7  Z-VECTOR ERROR= -0.128986E-05
 CYCLE  8  Z-VECTOR ERROR=  0.212627E-06
 CYCLE  9  Z-VECTOR ERROR= -0.495245E-07
 CYCLE 10  Z-VECTOR ERROR=  0.231097E-07
 CYCLE 11  Z-VECTOR ERROR= -0.343347E-08
 CYCLE 12  Z-VECTOR ERROR=  0.346517E-09
 CYCLE 13  Z-VECTOR ERROR= -0.452409E-10
 .... DONE WITH RESPONSE EQUATIONS AND DENSITY ....
 STEP CPU TIME =     0.00 TOTAL CPU TIME =          0.3 (      0.0 MIN)
 TOTAL WALL CLOCK TIME=          0.3 SECONDS, CPU UTILIZATION IS    93.10%
 ..... END OF 1-ELECTRON GRADIENT ......
 STEP CPU TIME =     0.00 TOTAL CPU TIME =          0.3 (      0.0 MIN)
 TOTAL WALL CLOCK TIME=          0.3 SECONDS, CPU UTILIZATION IS    93.10%
 THE COARSE/FINE SCHWARZ SCREENINGS SKIPPED          0/         0 BLOCKS.
 THE NUMBER OF GRADIENT INTEGRAL BLOCKS COMPUTED WAS      2266
 MAXIMUM MEMORY USED DURING MP2 GRADIENT=       32206 WORDS, OR       1 MWORDS.
 ..... DONE WITH MP2 ENERGY .....
 STEP CPU TIME =     0.02 TOTAL CPU TIME =          0.3 (      0.0 MIN)
 TOTAL WALL CLOCK TIME=          0.3 SECONDS, CPU UTILIZATION IS    93.55%

 UNITS ARE HARTREE/BOHR    E'X               E'Y               E'Z 
    1 C               -0.000030538      -0.000405391      -0.000010407
    2 O               -0.000018357       0.000304147       0.000011797
    3 O                0.000029177       0.000209657      -0.000017064
    4 H                0.000017879      -0.000162140       0.000011652
    5 H                0.000001839       0.000053727       0.000004023
  $VIB   
          IVIB=   1 IATOM=   2 ICOORD=   2 E=     -186.3810200412
 -3.053753596E-05-4.053914549E-04-1.040667648E-05-1.835732321E-05 3.041471294E-04
  1.179675510E-05 2.917704781E-05 2.096568556E-04-1.706444924E-05 1.787920098E-05
 -1.621397237E-04 1.165186704E-05 1.838612123E-06 5.372719368E-05 4.022507408E-06
 -7.335238391E-02-7.783972690E-03 5.230476881E-01
1   ATOM  2
                                        -------------------
   COORD  3                             NUCLEAR COORDINATES
                                        -------------------
     VIB  1

                       ATOM             X              Y              Z

                 1  C                0.072737       0.000000      -0.029188
                 2  O               -0.145627       0.000000       2.637099
                 3  O                2.144440       0.000000      -1.185553
                 4  H                1.700092       0.000000       3.175215
                 5  H               -1.864908       0.000000      -0.879931
 ...... END OF ONE-ELECTRON INTEGRALS ......
 STEP CPU TIME =     0.00 TOTAL CPU TIME =          0.3 (      0.0 MIN)
 TOTAL WALL CLOCK TIME=          0.3 SECONDS, CPU UTILIZATION IS    93.55%
 TOTAL NUMBER OF NONZERO TWO-ELECTRON INTEGRALS =                6789
          1 INTEGRAL RECORDS WERE STORED ON DISK FILE  8.
  ...... END OF TWO-ELECTRON INTEGRALS .....
 STEP CPU TIME =     0.00 TOTAL CPU TIME =          0.3 (      0.0 MIN)
 TOTAL WALL CLOCK TIME=          0.3 SECONDS, CPU UTILIZATION IS    93.55%

          --------------------------
                 RHF SCF CALCULATION
          --------------------------
     DENSITY MATRIX CONV=  1.00E-06

 ITER EX DEM     TOTAL ENERGY        E CHANGE  DENSITY CHANGE     ORB. GRAD
   1  0  0     -186.2122705567  -186.2122705567   0.001679982   0.000000000
          ---------------START SECOND ORDER SCF---------------
   2  1  0     -186.2122790340    -0.0000084773   0.000658191   0.000368121
   3  2  0     -186.2122803604    -0.0000013264   0.000714156   0.000150726
   4  3  0     -186.2122807011    -0.0000003407   0.000094108   0.000043157
   5  4  0     -186.2122807119    -0.0000000107   0.000069359   0.000026807
   6  5  0     -186.2122807156    -0.0000000037   0.000036901   0.000007513
   7  6  0     -186.2122807161    -0.0000000005   0.000006884   0.000001585
   8  7  0     -186.2122807161    -0.0000000000   0.000002096   0.000000669
   9  8  0     -186.2122807161    -0.0000000000   0.000000314   0.000000115
  10  9  0     -186.2122807161    -0.0000000000   0.000000164   0.000000043

          -----------------
          DENSITY CONVERGED
          -----------------
     TIME TO FORM FOCK OPERATORS=       0.0 SECONDS (       0.0 SEC/ITER)
     TIME TO SOLVE SCF EQUATIONS=       0.0 SECONDS (       0.0 SEC/ITER)

 FINAL RHF ENERGY IS     -186.2122807161 AFTER  10 ITERATIONS
 ...... END OF RHF CALCULATION ......
 STEP CPU TIME =     0.00 TOTAL CPU TIME =          0.3 (      0.0 MIN)
 TOTAL WALL CLOCK TIME=          0.3 SECONDS, CPU UTILIZATION IS    93.55%

 -------------------------------   -----------------------------
 MP2 ENERGY GRADIENT CALCULATION   PROGRAM WRITTEN BY K.ISHIMURA
 -------------------------------   -----------------------------
 NUMBER OF OCCUPIED ORBITALS            =   12
 NUMBER OF VIRTUAL ORBITALS             =    5
 NUMBER OF ACTIVE OCCUPIED ORBITALS     =    9
 NUMBER OF ACTIVE VIRTUAL ORBITALS      =    5
 NUMBER OF BASIS FUNCTIONS              =   17
 NUMBER OF BASIS SHELLS                 =    8
 AO INTEGRAL THRESHOLD                  = 1.00E-09
 HALF-TRANSFORMED INTEGRAL THRESHOLD    = 8.68E-10
   REQUIRED DISK =         0 MBYTES/PROCESSOR

 MAXIMUM MEMORY USED DURING MP2 GRADIENT=       32206 WORDS, OR       1 MWORDS.
 BEGINNING    1ST SHELL LOOP...
 .... DONE WITH 1ST THREE INDEX TRANSFORMATIONS ....
 STEP CPU TIME =     0.02 TOTAL CPU TIME =          0.3 (      0.0 MIN)
 TOTAL WALL CLOCK TIME=          0.3 SECONDS, CPU UTILIZATION IS    93.94%

 RESULTS OF MOLLER-PLESSET 2ND ORDER CORRECTION ARE
               E(0)=      -186.2122807161
               E(1)=         0.0
               E(2)=        -0.1687152423
             E(MP2)=      -186.3809959584
 .... DONE WITH 4TH INDEX TRANSFORMATION AND ENERGY ....
 STEP CPU TIME =     0.00 TOTAL CPU TIME =          0.3 (      0.0 MIN)
 TOTAL WALL CLOCK TIME=          0.3 SECONDS, CPU UTILIZATION IS    93.94%
 .... DONE WITH 1ST THREE INDEX TRANSFORMATIONS FOR GRADIENT ....
 STEP CPU TIME =     0.01 TOTAL CPU TIME =          0.3 (      0.0 MIN)
 TOTAL WALL CLOCK TIME=          0.3 SECONDS, CPU UTILIZATION IS    94.12%
 .... DONE WITH 4TH INDEX TRANSFORMATION FOR GRADIENT ....
 STEP CPU TIME =     0.00 TOTAL CPU TIME =          0.3 (      0.0 MIN)
 TOTAL WALL CLOCK TIME=          0.3 SECONDS, CPU UTILIZATION IS    94.12%
 CYCLE  1  Z-VECTOR ERROR= -0.203918E-01
 CYCLE  2  Z-VECTOR ERROR=  0.418504E-02
 CYCLE  3  Z-VECTOR ERROR= -0.123017E-02
 CYCLE  4  Z-VECTOR ERROR=  0.266493E-03
 CYCLE  5  Z-VECTOR ERROR= -0.625251E-04
 CYCLE  6  Z-VECTOR ERROR=  0.108010E-04
 CYCLE  7  Z-VECTOR ERROR= -0.128975E-05
 CYCLE  8  Z-VECTOR ERROR=  0.196002E-06
 CYCLE  9  Z-VECTOR ERROR= -0.198650E-07
 CYCLE 10  Z-VECTOR ERROR=  0.230305E-08
 CYCLE 11  Z-VECTOR ERROR= -0.214241E-09
 CYCLE 12  Z-VECTOR ERROR=  0.238623E-10
 .... DONE WITH RESPONSE EQUATIONS AND DENSITY ....
 STEP CPU TIME =     0.00 TOTAL CPU TIME =          0.3 (      0.0 MIN)
 TOTAL WALL CLOCK TIME=          0.3 SECONDS, CPU UTILIZATION IS    94.12%
 ..... END OF 1-ELECTRON GRADIENT ......
 STEP CPU TIME =     0.00 TOTAL CPU TIME =          0.3 (      0.0 MIN)
 TOTAL WALL CLOCK TIME=          0.3 SECONDS, CPU UTILIZATION IS    94.12%
 THE COARSE/FINE SCHWARZ SCREENINGS SKIPPED          0/         0 BLOCKS.
 THE NUMBER OF GRADIENT INTEGRAL BLOCKS COMPUTED WAS      2266
 MAXIMUM MEMORY USED DURING MP2 GRADIENT=       32206 WORDS, OR       1 MWORDS.
 ..... DONE WITH MP2 ENERGY .....
 STEP CPU TIME =     0.02 TOTAL CPU TIME =          0.3 (      0.0 MIN)
 TOTAL WALL CLOCK TIME=          0.4 SECONDS, CPU UTILIZATION IS    94.44%

 UNITS ARE HARTREE/BOHR    E'X               E'Y               E'Z 
    1 C                0.000473768       0.000000000      -0.003706867
    2 O                0.000858531       0.000000000       0.005095231
    3 O                0.000286713       0.000000000      -0.000422886
    4 H               -0.001626891       0.000000000      -0.000882038
    5 H                0.000007879       0.000000000      -0.000083440
  $VIB   
          IVIB=   1 IATOM=   2 ICOORD=   3 E=     -186.3809959584
  4.737679369E-04 0.000000000E+00-3.706866770E-03 8.585314001E-04 0.000000000E+00
  5.095230560E-03 2.867130084E-04 0.000000000E+00-4.228855768E-04-1.626891130E-03
  0.000000000E+00-8.820383420E-04 7.878786775E-06 0.000000000E+00-8.343986627E-05
 -7.066592831E-02 0.000000000E+00 5.006198331E-01
1   ATOM  3
                                        -------------------
   COORD  1                             NUCLEAR COORDINATES
                                        -------------------
     VIB  1

                       ATOM             X              Y              Z

[...]
 NUMBER OF BASIS FUNCTIONS              =   17
 NUMBER OF BASIS SHELLS                 =    8
 AO INTEGRAL THRESHOLD                  = 1.00E-09
 HALF-TRANSFORMED INTEGRAL THRESHOLD    = 8.77E-10
   REQUIRED DISK =         0 MBYTES/PROCESSOR

 MAXIMUM MEMORY USED DURING MP2 GRADIENT=       32206 WORDS, OR       1 MWORDS.
 BEGINNING    1ST SHELL LOOP...
 .... DONE WITH 1ST THREE INDEX TRANSFORMATIONS ....
 STEP CPU TIME =     0.01 TOTAL CPU TIME =          1.4 (      0.0 MIN)
 TOTAL WALL CLOCK TIME=          1.4 SECONDS, CPU UTILIZATION IS    95.10%

 RESULTS OF MOLLER-PLESSET 2ND ORDER CORRECTION ARE
               E(0)=      -186.2124946693
               E(1)=         0.0
               E(2)=        -0.1685204737
             E(MP2)=      -186.3810151430
 .... DONE WITH 4TH INDEX TRANSFORMATION AND ENERGY ....
 STEP CPU TIME =     0.00 TOTAL CPU TIME =          1.4 (      0.0 MIN)
 TOTAL WALL CLOCK TIME=          1.4 SECONDS, CPU UTILIZATION IS    95.10%
 .... DONE WITH 1ST THREE INDEX TRANSFORMATIONS FOR GRADIENT ....
 STEP CPU TIME =     0.01 TOTAL CPU TIME =          1.4 (      0.0 MIN)
 TOTAL WALL CLOCK TIME=          1.4 SECONDS, CPU UTILIZATION IS    95.14%
 .... DONE WITH 4TH INDEX TRANSFORMATION FOR GRADIENT ....
 STEP CPU TIME =     0.01 TOTAL CPU TIME =          1.4 (      0.0 MIN)
 TOTAL WALL CLOCK TIME=          1.4 SECONDS, CPU UTILIZATION IS    95.83%
 CYCLE  1  Z-VECTOR ERROR= -0.202002E-01
 CYCLE  2  Z-VECTOR ERROR=  0.416878E-02
 CYCLE  3  Z-VECTOR ERROR= -0.121084E-02
 CYCLE  4  Z-VECTOR ERROR=  0.260281E-03
 CYCLE  5  Z-VECTOR ERROR= -0.613811E-04
 CYCLE  6  Z-VECTOR ERROR=  0.107054E-04
 CYCLE  7  Z-VECTOR ERROR= -0.127877E-05
 CYCLE  8  Z-VECTOR ERROR=  0.193512E-06
 CYCLE  9  Z-VECTOR ERROR= -0.195310E-07
 CYCLE 10  Z-VECTOR ERROR=  0.222902E-08
 CYCLE 11  Z-VECTOR ERROR= -0.215202E-09
 CYCLE 12  Z-VECTOR ERROR=  0.257633E-10
 .... DONE WITH RESPONSE EQUATIONS AND DENSITY ....
 STEP CPU TIME =     0.00 TOTAL CPU TIME =          1.4 (      0.0 MIN)
 TOTAL WALL CLOCK TIME=          1.4 SECONDS, CPU UTILIZATION IS    95.83%
 ..... END OF 1-ELECTRON GRADIENT ......
 STEP CPU TIME =     0.00 TOTAL CPU TIME =          1.4 (      0.0 MIN)
 TOTAL WALL CLOCK TIME=          1.4 SECONDS, CPU UTILIZATION IS    95.83%
 THE COARSE/FINE SCHWARZ SCREENINGS SKIPPED          0/         0 BLOCKS.
 THE NUMBER OF GRADIENT INTEGRAL BLOCKS COMPUTED WAS      2266
 MAXIMUM MEMORY USED DURING MP2 GRADIENT=       32206 WORDS, OR       1 MWORDS.
 ..... DONE WITH MP2 ENERGY .....
 STEP CPU TIME =     0.01 TOTAL CPU TIME =          1.4 (      0.0 MIN)
 TOTAL WALL CLOCK TIME=          1.5 SECONDS, CPU UTILIZATION IS    95.21%

 UNITS ARE HARTREE/BOHR    E'X               E'Y               E'Z 
    1 C                0.001053872       0.000000000       0.001240930
    2 O                0.000378191       0.000000000       0.000096382
    3 O               -0.000237030       0.000000000      -0.000147083
    4 H                0.000011941       0.000000000       0.000105321
    5 H               -0.001206974       0.000000000      -0.001295550
  $VIB   
          IVIB=   2 IATOM=   5 ICOORD=   3 E=     -186.3810151430
  1.053872179E-03 0.000000000E+00 1.240930216E-03 3.781914656E-04 0.000000000E+00
  9.638192739E-05-2.370304817E-04 0.000000000E+00-1.470828852E-04 1.194121448E-05
  0.000000000E+00 1.053210517E-04-1.206974376E-03 0.000000000E+00-1.295550307E-03
 -7.289242706E-02 0.000000000E+00 5.240624718E-01
 ...... END OF NUMERICAL HESSIAN CALCULATION ......
 STEP CPU TIME =     0.00 TOTAL CPU TIME =          1.4 (      0.0 MIN)
 TOTAL WALL CLOCK TIME=          1.5 SECONDS, CPU UTILIZATION IS    95.21%

          ---------------
          ENERGY GRADIENT
          ---------------

 UNITS ARE HARTREE/BOHR    E'X               E'Y               E'Z 
    1 C               -0.000033272       0.000000000      -0.000005647
    2 O               -0.000003403       0.000000000       0.000008971
    3 O                0.000029197       0.000000000      -0.000016963
    4 H                0.000005537       0.000000000       0.000010311
    5 H                0.000001941       0.000000000       0.000003328

          -------------------------------
          CARTESIAN FORCE CONSTANT MATRIX
          -------------------------------

                                   1                          2
                               C                          O         
                          X        Y        Z        X        Y        Z
  1   C            X 1.030808 0.000000-0.131158-0.123141-0.000000 0.051467
                   Y 0.000000 0.149239 0.000000-0.000000-0.040536-0.000000
                   Z-0.131158 0.000000 0.775786-0.035515-0.000000-0.376148
  2   O            X-0.123141-0.000000-0.035515 0.609461 0.000000 0.085671
                   Y-0.000000-0.040536-0.000000 0.000000 0.030415-0.000000
                   Z 0.051467-0.000000-0.376148 0.085671-0.000000 0.515785
  3   O            X-0.591731-0.000000 0.265667-0.003141-0.000000 0.025737
                   Y-0.000000-0.054437-0.000000 0.000000 0.020962 0.000000
                   Z 0.263176 0.000000-0.242762 0.058627-0.000000-0.040801
  4   H            X-0.000409-0.000000 0.020799-0.486116-0.000000-0.163408
                   Y 0.000000-0.000355-0.000000-0.000000-0.016215-0.000000
                   Z-0.074405 0.000000-0.032568-0.070465-0.000000-0.089940
  5   H            X-0.315529-0.000000-0.119798 0.002937 0.000000 0.000529
                   Y-0.000000-0.053922-0.000000 0.000000 0.005374-0.000000
                   Z-0.109084-0.000000-0.124294-0.038319-0.000000-0.008897

                                   3                          4
                               O                          H         
                          X        Y        Z        X        Y        Z
  3   O            X 0.631638 0.000000-0.319706-0.002305 0.000000 0.001689
                   Y 0.000000 0.021841-0.000000 0.000000-0.005068-0.000000
                   Z-0.319706-0.000000 0.258780 0.002912 0.000000 0.011771
  4   H            X-0.002305 0.000000 0.002912 0.487262 0.000000 0.140364
                   Y 0.000000-0.005068 0.000000 0.000000 0.013721 0.000000
                   Z 0.001689-0.000000 0.011771 0.140364 0.000000 0.120280
  5   H            X-0.034460-0.000000-0.005004 0.001569 0.000000 0.002817
                   Y 0.000000 0.016709 0.000000-0.000000 0.007923 0.000000
                   Z 0.026619 0.000000 0.013003-0.000667 0.000000-0.009544

                                   5
                               H         
                          X        Y        Z
  5   H            X 0.345484-0.000000 0.121454
                   Y-0.000000 0.023916 0.000000
                   Z 0.121454 0.000000 0.129729

          ------------------------          ----------------
          DIPOLE DERIVATIVE TENSOR          (DEBYE/ANGSTROM)
          ------------------------          ----------------

        ATOM                 MU-X           MU-Y           MU-Z
     C          D/DX     1.967165678    0.000000000    0.131251517
                D/DY     0.000000000    0.922463108    0.000000000
                D/DZ     0.662368144    0.000000000    5.829089964
     O          D/DX    -0.056830050    0.000000000   -0.228364760
                D/DY     0.000000000   -1.470957548    0.000000000
                D/DZ     0.505474816    0.000000000   -4.255850911
     O          D/DX    -0.948448264    0.000000000    0.491671174
                D/DY     0.000000000   -0.961013251    0.000000000
                D/DZ    -0.841888502    0.000000000   -2.131964700
     H          D/DX    -0.707658967    0.000000000   -0.232409667
                D/DY     0.000000000    1.249917301   -0.000000000
                D/DZ    -0.244259738    0.000000000    0.743107988
     H          D/DX    -0.254081020    0.000000000   -0.162139882
                D/DY     0.000000000    0.259600600   -0.000000000
                D/DZ    -0.081620588    0.000000000   -0.184322223

          --------------------------------------------------------
          NORMAL COORDINATE ANALYSIS IN THE HARMONIC APPROXIMATION
          --------------------------------------------------------

          ATOMIC WEIGHTS (AMU)

    1     C                12.00000
    2     O                15.99491
    3     O                15.99491
    4     H                 1.00782
    5     H                 1.00782

 MODES    1 TO    6 ARE TAKEN AS ROTATIONS AND TRANSLATIONS.

 ANALYZING SYMMETRY OF NORMAL MODES...

     FREQUENCIES IN CM**-1, IR INTENSITIES IN DEBYE**2/AMU-ANGSTROM**2,
     REDUCED MASSES IN AMU.

                            1           2           3           4           5
       FREQUENCY:         2.25        1.27        0.30        2.68        4.96  
        SYMMETRY:         A           A           A           A           A   
    REDUCED MASS:      6.73307     9.04763     9.27374     6.88109     9.56915
    IR INTENSITY:      0.00023     0.00093     0.00000     0.00438     0.00667

  1   C            X  0.00000001  0.07097747  0.11250434  0.07612146  0.00000000
                   Y  0.18274106  0.00000002 -0.00000004  0.00000002 -0.03534534
                   Z  0.00000004 -0.08091969  0.09528379 -0.09098631 -0.00000001
  2   O            X  0.00000002  0.15226356  0.10819986 -0.10002105 -0.00000001
                   Y  0.13516770  0.00000002 -0.00000003  0.00000000  0.18185167
                   Z  0.00000004 -0.07423904  0.09493127 -0.10546480 -0.00000001
  3   O            X  0.00000001  0.03558423  0.11437578  0.15280593  0.00000001
                   Y  0.11820971  0.00000001 -0.00000003  0.00000002 -0.16034463
                   Z  0.00000004 -0.14433385  0.09863873  0.04640129  0.00000000
  4   H            X  0.00000002  0.16903390  0.10731131 -0.13636230 -0.00000001
                   Y  0.04383418 -0.00000000 -0.00000001 -0.00000002  0.19749442
                   Z  0.00000004 -0.13071616  0.09792312  0.01691996 -0.00000000
  5   H            X  0.00000001  0.04494077  0.11388266  0.13253902  0.00000000
                   Y  0.28453662  0.00000004 -0.00000007  0.00000005 -0.07395110
                   Z  0.00000004 -0.02161899  0.09214481 -0.21948919 -0.00000001

 TRANS. SAYVETZ    X  0.00000051  4.07198722  5.13305433  1.75389374 -0.00000005
                   Y  6.57658196  0.00000076 -0.00000149  0.00000058  0.04436914
                   Z  0.00000177 -4.62061709  4.43109537 -2.24070558 -0.00000021
               TOTAL  6.57658196  6.15882962  6.78106577  2.84550607  0.04436914

   ROT. SAYVETZ    X  0.31459767  0.00000000 -0.00000036  0.00000067-11.36785404
                   Y  0.00000044  5.73469322 -0.30351219-12.42586852 -0.00000068
                   Z -1.23174410 -0.00000025  0.00000014  0.00000004 -5.50841361
               TOTAL  1.27128487  5.73469322  0.30351219 12.42586852 12.63213070

                            6           7           8           9          10
       FREQUENCY:         8.91      572.32      645.30      992.59     1152.29  
        SYMMETRY:         A           A           A           A           A   
    REDUCED MASS:      2.03720     4.25352     1.36839     1.39244     3.75061
    IR INTENSITY:      0.00336     0.68799     1.76491     0.10580     2.22482

  1   C            X  0.00000000 -0.12071472 -0.00000000  0.00000000 -0.06621960
                   Y -0.12071091  0.00000000  0.10465530 -0.15220345 -0.00000000
                   Z -0.00000000 -0.06444383 -0.00000000  0.00000000 -0.12596947
  2   O            X -0.00000000  0.09456558  0.00000000  0.00000000 -0.01764696
                   Y  0.06209060  0.00000000 -0.08464818  0.01260935  0.00000000
                   Z -0.00000000 -0.07385264 -0.00000000 -0.00000000  0.17019470
  3   O            X  0.00000000 -0.00895211  0.00000000  0.00000000  0.05698715
                   Y  0.13846512  0.00000000 -0.04881668  0.03578125  0.00000000
                   Z -0.00000000  0.15067786  0.00000000  0.00000000 -0.03761433
  4   H            X -0.00000000  0.17919096  0.00000000  0.00000000  0.12057225
                   Y  0.42363798 -0.00000000  0.84224918  0.24991488  0.00000000
                   Z -0.00000000 -0.35797120 -0.00000000 -0.00000000 -0.22015788
  5   H            X  0.00000000 -0.10045180  0.00000000  0.00000000  0.04352438
                   Y -0.52326134 -0.00000000  0.03000117  0.79442017  0.00000000
                   Z -0.00000001 -0.09407436 -0.00000000 -0.00000000 -0.38409432

 TRANS. SAYVETZ    X  0.00000011  0.00015838  0.00000000  0.00000000 -0.00001175
                   Y  1.65893674  0.00000000  0.00018099  0.00006891  0.00000000
                   Z -0.00000013 -0.00009637 -0.00000000 -0.00000000 -0.00000299
               TOTAL  1.65893674  0.00018540  0.00018099  0.00006891  0.00001213

   ROT. SAYVETZ    X -0.94313139  0.00000000 -0.00065688  0.00015497  0.00000000
                   Y -0.00000026  0.00054302 -0.00000000 -0.00000000  0.00014461
                   Z  5.03037233 -0.00000000  0.00068983  0.00012065  0.00000000
               TOTAL  5.11802136  0.00054302  0.00095255  0.00019640  0.00014461

                           11          12          13          14          15
       FREQUENCY:      1451.44     1534.25     1839.49     3366.21     3855.70  
        SYMMETRY:         A           A           A           A           A   
    REDUCED MASS:      1.38986     1.33069     5.14020     1.09142     1.06552
    IR INTENSITY:      0.26401     0.00966     1.93949     0.33443     0.56599

  1   C            X -0.07254824  0.00028001  0.17240841 -0.07670626 -0.00386153
                   Y -0.00000000 -0.00000000 -0.00000000 -0.00000000 -0.00000000
                   Z -0.10279244 -0.09075265 -0.13975195 -0.03262714  0.00300755
  2   O            X  0.00773954  0.06658417 -0.02734636  0.00101670 -0.05592854
                   Y  0.00000000  0.00000000  0.00000000  0.00000000 -0.00000000
                   Z  0.02253127  0.00203867  0.03837481  0.00121509 -0.02161756
  3   O            X  0.07830217 -0.06282974 -0.10680593  0.00286110  0.00006834
                   Y  0.00000000  0.00000000  0.00000000  0.00000000  0.00000000
                   Z -0.00562708  0.04199096  0.06235230 -0.00187858  0.00023042
  4   H            X -0.08030318 -0.17799570  0.07139388 -0.01806932  0.91834154
                   Y  0.00000000  0.00000000  0.00000000  0.00000000  0.00000000
                   Z  0.31003183  0.74555004 -0.21279769  0.00885685  0.30221688
  5   H            X -0.42139646  0.11507801  0.00486937  0.86985780  0.01418007
                   Y  0.00000000  0.00000000  0.00000000  0.00000000 -0.00000000
                   Z  0.64559722 -0.36378093  0.27815499  0.39015288  0.00140231

 TRANS. SAYVETZ    X  0.00002513  0.00000194  0.00000724  0.00000378  0.00000137
                   Y  0.00000000  0.00000000  0.00000000  0.00000000 -0.00000000
                   Z -0.00002144 -0.00002550 -0.00003368 -0.00000621  0.00000021
               TOTAL  0.00003303  0.00002557  0.00003445  0.00000727  0.00000139

   ROT. SAYVETZ    X  0.00000000 -0.00000000 -0.00000000 -0.00000000  0.00000000
                   Y -0.00009806  0.00005965  0.00004900 -0.00003748  0.00003808
                   Z -0.00000000 -0.00000000 -0.00000000  0.00000000  0.00000000
               TOTAL  0.00009806  0.00005965  0.00004900  0.00003748  0.00003808

 REFERENCE ON SAYVETZ CONDITIONS - A. SAYVETZ, J.CHEM.PHYS., 7, 383-389(1939).

 NOTE - THE MODES J,K ARE ORTHONORMALIZED ACCORDING TO
 SUM ON I   M(I) * (X(I,J)*X(I,K) + Y(I,J)*Y(I,K) + Z(I,J)*Z(I,K)) = DELTA(J,K)

  MODE FREQ(CM**-1)  SYMMETRY  RED. MASS  IR INTENS.
     1       2.247    A        6.733070    0.000231
     2       1.268    A        9.047633    0.000934
     3       0.298    A        9.273738    0.000003
     4       2.680    A        6.881090    0.004381
     5       4.957    A        9.569146    0.006666
     6       8.908    A        2.037197    0.003355
     7     572.322    A        4.253524    0.687992
     8     645.304    A        1.368392    1.764907
     9     992.594    A        1.392436    0.105800
    10    1152.295    A        3.750609    2.224822
    11    1451.435    A        1.389856    0.264011
    12    1534.250    A        1.330687    0.009662
    13    1839.492    A        5.140202    1.939494
    14    3366.209    A        1.091418    0.334427
    15    3855.702    A        1.065520    0.565994

     -------------------------------
     THERMOCHEMISTRY AT T=  298.15 K
     -------------------------------

 USING IDEAL GAS, RIGID ROTOR, HARMONIC NORMAL MODE APPROXIMATIONS.
 P=  1.01325E+05 PASCAL.
 ALL FREQUENCIES ARE SCALED BY   1.00000
 THE MOMENTS OF INERTIA ARE (IN AMU*BOHR**2)
             25.58096           161.80008           187.38103
 THE ROTATIONAL SYMMETRY NUMBER IS  1.0
 THE ROTATIONAL CONSTANTS ARE (IN GHZ)
     70.48556    11.14393     9.62258
      7 -     15 VIBRATIONAL MODES ARE USED IN THERMOCHEMISTRY.
 THE HARMONIC ZERO POINT ENERGY IS (SCALED BY   1.000)
        0.035106 HARTREE/MOLECULE     7704.801717 CM**-1/MOLECULE 
       22.029156 KCAL/MOL               92.169987 KJ/MOL

               Q               LN Q
 ELEC.     1.00000E+00       0.000000
 TRANS.    1.22650E+07      16.322261
 ROT.      9.96901E+03       9.207236
 VIB.      1.13264E+00       0.124554
 TOT.      1.38488E+11      25.654051

              E         H         G         CV        CP        S
           KJ/MOL    KJ/MOL    KJ/MOL   J/MOL-K   J/MOL-K   J/MOL-K
 ELEC.      0.000     0.000     0.000     0.000     0.000     0.000
 TRANS.     3.718     6.197   -40.462    12.472    20.786   156.496
 ROT.       3.718     3.718   -22.824    12.472    12.472    89.024
 VIB.      93.173    93.173    91.861    11.837    11.837     4.401
 TOTAL    100.610   103.089    28.575    36.780    45.095   249.921
 VIB. THERMAL CORRECTION E(T)-E(0) = H(T)-H(0) =      1003.330 J/MOL

              E         H         G         CV        CP        S
         KCAL/MOL  KCAL/MOL  KCAL/MOL CAL/MOL-K CAL/MOL-K CAL/MOL-K
 ELEC.      0.000     0.000     0.000     0.000     0.000     0.000
 TRANS.     0.889     1.481    -9.671     2.981     4.968    37.403
 ROT.       0.889     0.889    -5.455     2.981     2.981    21.277
 VIB.      22.269    22.269    21.955     2.829     2.829     1.052
 TOTAL     24.046    24.639     6.830     8.791    10.778    59.733
 VIB. THERMAL CORRECTION E(T)-E(0) = H(T)-H(0) =       239.802 CAL/MOL
 ......END OF NORMAL COORDINATE ANALYSIS......
 STEP CPU TIME =     0.00 TOTAL CPU TIME =          1.4 (      0.0 MIN)
 TOTAL WALL CLOCK TIME=          1.5 SECONDS, CPU UTILIZATION IS    95.21%
               580000  WORDS OF DYNAMIC MEMORY USED
 EXECUTION OF GAMESS TERMINATED NORMALLY Thu Mar 28 09:44:42 2024
 DDI: 263640 bytes (0.3 MB / 0 MWords) used by master data server.

 ----------------------------------------
 CPU timing information for all processes
 ========================================
 0: 1.108 + 0.292 = 1.401
 1: 0.02 + 0.03 = 0.06
 ----------------------------------------
Note: The following floating-point exceptions are signalling: IEEE_DENORMAL
 ddikick.x: exited gracefully.
unset echo
----- accounting info -----
Files used on the master node PC102994 were:
-rw-r--r--  1 fallum  1704612529      546 Mar 28 09:44 .//CH2O2_t_avo_n_vibs.F05
-rw-r--r--  1 fallum  1704612529   180016 Mar 28 09:44 .//CH2O2_t_avo_n_vibs.F08
-rw-r--r--  1 fallum  1704612529  1930480 Mar 28 09:44 .//CH2O2_t_avo_n_vibs.F10
-rw-r--r--  1 fallum  1704612529    23863 Mar 28 09:44 .//CH2O2_t_avo_n_vibs.dat
-rw-r--r--  1 fallum  1704612529      546 Mar 28 09:44 .//CH2O2_t_avo_n_vibs.inp
-rw-r--r--  1 fallum  1704612529   250772 Mar 28 09:44 .//CH2O2_t_avo_n_vibs.log
-rw-r--r--  1 fallum  1704612529    11212 Mar 28 09:44 .//CH2O2_t_avo_n_vibs.rst
ls: No match.
ls: No match.
ls: No match.
Thu Mar 28 09:44:45 PDT 2024
1.196u 0.454s 0:04.83 33.9%	0+0k 0+0io 41pf+0w
